/*--------------------------------*- C++ -*----------------------------------*\
| =========                 |                                                 |
| \\      /  F ield         | OpenFOAM: The Open Source CFD Toolbox           |
|  \\    /   O peration     | Version:  5.x                                   |
|   \\  /    A nd           | Web:      www.OpenFOAM.org                      |
|    \\/     M anipulation  |                                                 |
\*---------------------------------------------------------------------------*/
FoamFile
{
    version     2.0;
    format      ascii;
    class       volScalarField;
    location    "0";
    object      alphat;
}
// * * * * * * * * * * * * * * * * * * * * * * * * * * * * * * * * * * * * * //

dimensions      [1 -1 -1 0 0 0 0];

internalField   nonuniform List<scalar> 
21600
(
0.0153901
0.015304
0.0152567
0.0152405
0.0152358
0.0152352
0.0152366
0.0152391
0.0152423
0.0152458
0.0152496
0.0152534
0.0152572
0.0152609
0.0152646
0.0152683
0.0152718
0.0152753
0.0152787
0.015282
0.0152851
0.0152882
0.0152912
0.0152942
0.015297
0.0152997
0.0153024
0.015305
0.0153075
0.01531
0.0153124
0.0153147
0.0153169
0.0153191
0.0153213
0.0153233
0.0153254
0.0153273
0.0153292
0.0153311
0.0153328
0.0153346
0.0153363
0.0153379
0.0153394
0.0153409
0.0153424
0.0153437
0.0153451
0.0153463
0.0153475
0.0153486
0.0153497
0.0153507
0.0153516
0.0153524
0.0153532
0.0153539
0.0153545
0.015355
0.0153554
0.0153558
0.0153561
0.0153563
0.0153564
0.0153564
0.0153563
0.0153561
0.0153558
0.0153555
0.015355
0.0153545
0.0153538
0.0153531
0.0153522
0.0153513
0.0153502
0.0153491
0.0153479
0.0153466
0.0153451
0.0153436
0.015342
0.0153403
0.0153385
0.0153366
0.0153346
0.0153326
0.0153304
0.0153281
0.0153258
0.0153234
0.0153209
0.0153183
0.0153156
0.0153128
0.01531
0.015307
0.015304
0.015301
0.0152978
0.0152946
0.0152913
0.0152879
0.0152845
0.0152809
0.0152774
0.0152737
0.01527
0.0152663
0.0152625
0.0152586
0.0152546
0.0152507
0.0152466
0.0152425
0.0152384
0.0152342
0.01523
0.0152258
0.0152215
0.0152172
0.0152128
0.0152084
0.015204
0.0151996
0.0151951
0.0151907
0.0151862
0.0151817
0.0151772
0.0151727
0.0151683
0.0151638
0.0151593
0.0151549
0.0151505
0.0151461
0.0151417
0.0151374
0.0151331
0.0151288
0.0151247
0.0151204
0.0151164
0.0151121
0.0151085
0.0151037
0.0151011
0.015095
0.0462592
0.045487
0.045381
0.0453547
0.0453367
0.0453239
0.0453148
0.0453085
0.0453044
0.045302
0.0453011
0.0453013
0.0453024
0.0453044
0.0453069
0.0453099
0.0453133
0.045317
0.0453209
0.045325
0.0453293
0.0453337
0.0453382
0.0453427
0.0453473
0.0453519
0.0453565
0.045361
0.0453656
0.0453701
0.0453746
0.0453791
0.0453835
0.0453878
0.0453921
0.0453963
0.0454004
0.0454044
0.0454084
0.0454122
0.0454159
0.0454195
0.0454229
0.0454263
0.0454295
0.0454325
0.0454354
0.0454381
0.0454406
0.0454429
0.0454451
0.045447
0.0454488
0.0454503
0.0454516
0.0454526
0.0454535
0.045454
0.0454543
0.0454544
0.0454542
0.0454537
0.045453
0.0454519
0.0454506
0.045449
0.0454471
0.0454448
0.0454423
0.0454394
0.0454363
0.0454328
0.045429
0.045425
0.0454206
0.0454159
0.045411
0.0454057
0.0454001
0.0453943
0.0453881
0.0453817
0.045375
0.045368
0.0453608
0.0453532
0.0453454
0.0453373
0.045329
0.0453204
0.0453115
0.0453024
0.045293
0.0452834
0.0452735
0.0452634
0.0452531
0.0452425
0.0452317
0.0452207
0.0452095
0.0451981
0.0451865
0.0451746
0.0451626
0.0451504
0.045138
0.0451254
0.0451126
0.0450997
0.0450866
0.0450733
0.0450599
0.0450463
0.0450326
0.0450187
0.0450047
0.0449905
0.0449762
0.0449618
0.0449473
0.0449326
0.0449179
0.044903
0.044888
0.0448729
0.0448577
0.0448424
0.044827
0.0448115
0.044796
0.0447804
0.0447647
0.0447489
0.0447331
0.0447172
0.0447013
0.0446853
0.0446693
0.0446532
0.0446372
0.044621
0.044605
0.0445888
0.0445728
0.0445567
0.0445406
0.0445245
0.0445088
0.0444907
0.0818488
0.079842
0.0791127
0.0788129
0.0786617
0.0785687
0.0785029
0.0784528
0.078413
0.0783803
0.0783531
0.0783301
0.0783106
0.0782941
0.07828
0.078268
0.0782578
0.0782492
0.0782418
0.0782357
0.0782306
0.0782264
0.0782231
0.0782204
0.0782184
0.078217
0.0782161
0.0782156
0.0782155
0.0782157
0.0782163
0.0782171
0.0782181
0.0782193
0.0782207
0.0782222
0.0782237
0.0782254
0.078227
0.0782286
0.0782302
0.0782318
0.0782332
0.0782345
0.0782357
0.0782367
0.0782374
0.078238
0.0782382
0.0782382
0.0782379
0.0782372
0.0782362
0.0782348
0.078233
0.0782308
0.0782282
0.0782251
0.0782215
0.0782174
0.0782128
0.0782078
0.0782021
0.078196
0.0781893
0.0781821
0.0781742
0.0781657
0.0781567
0.0781471
0.0781369
0.0781261
0.0781147
0.0781027
0.0780902
0.0780771
0.0780635
0.0780493
0.0780346
0.0780193
0.0780034
0.0779871
0.0779703
0.0779529
0.0779351
0.0779168
0.077898
0.0778787
0.0778589
0.0778387
0.0778181
0.077797
0.0777754
0.0777535
0.0777311
0.0777084
0.0776852
0.0776617
0.0776378
0.0776135
0.0775889
0.077564
0.0775387
0.0775131
0.0774872
0.077461
0.0774345
0.0774078
0.0773807
0.0773534
0.0773258
0.077298
0.07727
0.0772417
0.0772132
0.0771844
0.0771555
0.0771263
0.077097
0.0770674
0.0770377
0.0770078
0.0769777
0.0769475
0.0769171
0.0768865
0.0768557
0.0768248
0.0767938
0.0767626
0.0767313
0.0766998
0.0766682
0.0766364
0.0766045
0.0765725
0.0765403
0.076508
0.0764756
0.076443
0.0764103
0.0763775
0.0763445
0.0763115
0.0762783
0.0762453
0.0762117
0.0761788
0.0761455
0.0761089
0.122621
0.120216
0.118944
0.118281
0.117909
0.11767
0.117502
0.117375
0.117275
0.117192
0.117121
0.11706
0.117005
0.116958
0.116915
0.116876
0.116841
0.116809
0.116781
0.116754
0.116731
0.116709
0.116689
0.116671
0.116654
0.116639
0.116625
0.116613
0.116601
0.11659
0.116581
0.116572
0.116563
0.116556
0.116549
0.116542
0.116536
0.11653
0.116524
0.116519
0.116514
0.116509
0.116504
0.116499
0.116493
0.116488
0.116482
0.116477
0.11647
0.116464
0.116457
0.116449
0.116441
0.116433
0.116424
0.116414
0.116403
0.116392
0.11638
0.116367
0.116354
0.116339
0.116324
0.116308
0.116291
0.116273
0.116254
0.116234
0.116213
0.116191
0.116168
0.116144
0.11612
0.116094
0.116067
0.116039
0.116011
0.115981
0.115951
0.11592
0.115888
0.115855
0.115821
0.115787
0.115751
0.115715
0.115678
0.115641
0.115602
0.115563
0.115524
0.115483
0.115442
0.1154
0.115358
0.115315
0.115272
0.115228
0.115183
0.115138
0.115092
0.115046
0.115
0.114953
0.114905
0.114857
0.114809
0.11476
0.114711
0.114662
0.114612
0.114562
0.114512
0.114462
0.114411
0.11436
0.114308
0.114257
0.114205
0.114153
0.1141
0.114048
0.113995
0.113942
0.113889
0.113836
0.113782
0.113729
0.113675
0.113621
0.113567
0.113513
0.113458
0.113403
0.113349
0.113294
0.113239
0.113183
0.113128
0.113072
0.113016
0.11296
0.112904
0.112847
0.11279
0.112734
0.112676
0.11262
0.112563
0.112501
0.167436
0.165437
0.164039
0.163159
0.162593
0.162209
0.161933
0.161723
0.161556
0.161417
0.161297
0.161192
0.161099
0.161014
0.160937
0.160867
0.160802
0.160741
0.160685
0.160633
0.160584
0.160539
0.160496
0.160456
0.160419
0.160384
0.160351
0.16032
0.160291
0.160264
0.160238
0.160214
0.16019
0.160169
0.160148
0.160128
0.160109
0.16009
0.160072
0.160055
0.160038
0.160022
0.160005
0.159989
0.159973
0.159956
0.159939
0.159922
0.159905
0.159887
0.159869
0.15985
0.15983
0.159809
0.159788
0.159766
0.159742
0.159718
0.159692
0.159665
0.159637
0.159608
0.159577
0.159545
0.159512
0.159477
0.159441
0.159403
0.159364
0.159323
0.159281
0.159238
0.159192
0.159146
0.159098
0.159048
0.158998
0.158945
0.158892
0.158837
0.158781
0.158723
0.158665
0.158605
0.158544
0.158482
0.158418
0.158354
0.158288
0.158222
0.158154
0.158086
0.158016
0.157946
0.157874
0.157802
0.157729
0.157656
0.157581
0.157506
0.15743
0.157353
0.157276
0.157198
0.15712
0.157041
0.156962
0.156882
0.156802
0.156721
0.15664
0.156558
0.156476
0.156394
0.156312
0.156229
0.156146
0.156062
0.155979
0.155895
0.155811
0.155727
0.155642
0.155558
0.155473
0.155388
0.155303
0.155218
0.155133
0.155047
0.154962
0.154876
0.154791
0.154705
0.154619
0.154532
0.154446
0.15436
0.154273
0.154186
0.154099
0.154012
0.153925
0.153837
0.153749
0.153661
0.153572
0.153484
0.153396
0.153302
0.216203
0.215011
0.213904
0.213057
0.212443
0.211998
0.211664
0.211404
0.211194
0.211017
0.210864
0.210727
0.210604
0.210491
0.210386
0.210288
0.210196
0.21011
0.210028
0.20995
0.209877
0.209807
0.209741
0.209678
0.209618
0.209561
0.209507
0.209455
0.209406
0.209358
0.209313
0.20927
0.209228
0.209188
0.20915
0.209112
0.209076
0.209042
0.209007
0.208974
0.208941
0.208909
0.208877
0.208845
0.208814
0.208782
0.20875
0.208717
0.208684
0.20865
0.208616
0.20858
0.208544
0.208506
0.208467
0.208427
0.208385
0.208342
0.208297
0.208251
0.208202
0.208152
0.2081
0.208046
0.20799
0.207932
0.207872
0.20781
0.207746
0.207679
0.20761
0.207539
0.207466
0.207391
0.207314
0.207234
0.207153
0.207069
0.206984
0.206897
0.206808
0.206717
0.206624
0.20653
0.206434
0.206336
0.206236
0.206135
0.206033
0.205929
0.205823
0.205717
0.205609
0.205499
0.205389
0.205277
0.205164
0.20505
0.204935
0.204819
0.204702
0.204584
0.204465
0.204346
0.204226
0.204105
0.203984
0.203861
0.203739
0.203616
0.203492
0.203368
0.203243
0.203119
0.202993
0.202868
0.202742
0.202616
0.20249
0.202363
0.202237
0.20211
0.201983
0.201856
0.201729
0.201602
0.201475
0.201347
0.20122
0.201093
0.200966
0.200838
0.200711
0.200584
0.200456
0.200329
0.200202
0.200075
0.199947
0.19982
0.199692
0.199564
0.199436
0.199308
0.19918
0.199052
0.198923
0.198794
0.198665
0.198532
0.2693
0.268976
0.268398
0.267828
0.267353
0.266978
0.266681
0.266443
0.266244
0.266074
0.265923
0.265786
0.26566
0.26554
0.265428
0.26532
0.265216
0.265116
0.26502
0.264927
0.264837
0.264751
0.264667
0.264586
0.264507
0.264432
0.264359
0.264288
0.264219
0.264153
0.264089
0.264027
0.263967
0.263908
0.263851
0.263796
0.263741
0.263688
0.263636
0.263585
0.263534
0.263483
0.263433
0.263383
0.263333
0.263282
0.263231
0.263179
0.263127
0.263073
0.263019
0.262962
0.262905
0.262846
0.262784
0.262721
0.262656
0.262589
0.262519
0.262447
0.262373
0.262296
0.262216
0.262134
0.262048
0.26196
0.261869
0.261776
0.261679
0.261579
0.261475
0.261369
0.26126
0.261148
0.261032
0.260915
0.260794
0.26067
0.260544
0.260415
0.260283
0.260149
0.260012
0.259873
0.259731
0.259587
0.259441
0.259293
0.259143
0.25899
0.258836
0.25868
0.258521
0.258361
0.2582
0.258037
0.257872
0.257706
0.257538
0.257369
0.257199
0.257028
0.256855
0.256682
0.256508
0.256332
0.256156
0.255979
0.255802
0.255624
0.255445
0.255265
0.255086
0.254905
0.254725
0.254544
0.254363
0.254181
0.254
0.253818
0.253636
0.253454
0.253272
0.25309
0.252908
0.252726
0.252544
0.252363
0.252181
0.252
0.251818
0.251637
0.251457
0.251276
0.251096
0.250915
0.250735
0.250555
0.250376
0.250196
0.250017
0.249837
0.249658
0.249479
0.249299
0.24912
0.248939
0.24876
0.24858
0.248398
0.327282
0.327696
0.327719
0.327578
0.327398
0.327228
0.327079
0.326952
0.326841
0.326741
0.326647
0.326557
0.326469
0.326381
0.326293
0.326205
0.326117
0.326028
0.325939
0.32585
0.325761
0.325673
0.325586
0.325499
0.325414
0.32533
0.325247
0.325166
0.325086
0.325007
0.32493
0.324854
0.324779
0.324706
0.324634
0.324562
0.324492
0.324422
0.324353
0.324284
0.324215
0.324147
0.324078
0.324009
0.323939
0.323869
0.323797
0.323724
0.32365
0.323574
0.323496
0.323416
0.323334
0.32325
0.323163
0.323073
0.32298
0.322884
0.322784
0.322682
0.322576
0.322466
0.322352
0.322235
0.322114
0.321989
0.32186
0.321727
0.32159
0.321449
0.321304
0.321154
0.321
0.320842
0.32068
0.320514
0.320344
0.320171
0.319993
0.319812
0.319628
0.31944
0.319248
0.319054
0.318856
0.318655
0.31845
0.318243
0.318033
0.31782
0.317605
0.317386
0.317166
0.316943
0.316717
0.31649
0.31626
0.316029
0.315795
0.31556
0.315323
0.315085
0.314845
0.314604
0.314361
0.314118
0.313873
0.313627
0.313381
0.313133
0.312885
0.312636
0.312387
0.312137
0.311887
0.311636
0.311385
0.311134
0.310882
0.310631
0.310379
0.310128
0.309876
0.309625
0.309374
0.309123
0.308872
0.308622
0.308372
0.308122
0.307873
0.307624
0.307375
0.307127
0.30688
0.306633
0.306387
0.306141
0.305895
0.30565
0.305406
0.305161
0.304917
0.304674
0.30443
0.304188
0.303944
0.303701
0.303459
0.303216
0.390773
0.391731
0.392308
0.392645
0.392849
0.392982
0.393078
0.39315
0.393206
0.393247
0.393274
0.393289
0.393291
0.393282
0.393263
0.393235
0.393198
0.393154
0.393103
0.393047
0.392986
0.392921
0.392853
0.392782
0.392709
0.392634
0.392558
0.392481
0.392403
0.392325
0.392246
0.392167
0.392087
0.392008
0.391928
0.391848
0.391768
0.391687
0.391606
0.391525
0.391442
0.391359
0.391274
0.391188
0.391101
0.391012
0.39092
0.390827
0.390731
0.390632
0.39053
0.390425
0.390317
0.390205
0.390089
0.389969
0.389845
0.389717
0.389584
0.389446
0.389303
0.389156
0.389003
0.388845
0.388682
0.388514
0.388341
0.388161
0.387977
0.387787
0.387591
0.38739
0.387182
0.38697
0.386752
0.386529
0.3863
0.386067
0.385828
0.385585
0.385336
0.385084
0.384826
0.384564
0.384298
0.384028
0.383753
0.383474
0.383192
0.382906
0.382616
0.382323
0.382026
0.381726
0.381424
0.381118
0.380809
0.380498
0.380185
0.379869
0.379551
0.37923
0.378908
0.378584
0.378258
0.377931
0.377603
0.377272
0.376941
0.376609
0.376276
0.375942
0.375607
0.375271
0.374935
0.374599
0.374262
0.373925
0.373588
0.37325
0.372913
0.372576
0.372239
0.371902
0.371565
0.371229
0.370893
0.370558
0.370224
0.36989
0.369556
0.369224
0.368892
0.368561
0.368231
0.367901
0.367573
0.367245
0.366919
0.366593
0.366268
0.365944
0.365621
0.365298
0.364976
0.364655
0.364333
0.364013
0.363693
0.363377
0.460429
0.461749
0.462773
0.463554
0.464159
0.464644
0.465044
0.465381
0.465669
0.465915
0.466124
0.466302
0.46645
0.466572
0.46667
0.466747
0.466805
0.466847
0.466873
0.466885
0.466886
0.466876
0.466857
0.46683
0.466796
0.466755
0.466708
0.466657
0.466602
0.466543
0.46648
0.466414
0.466345
0.466274
0.4662
0.466124
0.466046
0.465965
0.465882
0.465796
0.465708
0.465617
0.465523
0.465427
0.465327
0.465223
0.465116
0.465005
0.46489
0.46477
0.464646
0.464517
0.464382
0.464243
0.464098
0.463947
0.46379
0.463626
0.463457
0.463281
0.463098
0.462909
0.462713
0.462509
0.462299
0.462082
0.461857
0.461625
0.461386
0.46114
0.460886
0.460625
0.460356
0.46008
0.459796
0.459506
0.459209
0.458906
0.458595
0.458279
0.457956
0.457627
0.457292
0.456951
0.456604
0.456252
0.455894
0.455531
0.455163
0.45479
0.454412
0.45403
0.453643
0.453252
0.452858
0.452459
0.452056
0.45165
0.451241
0.450829
0.450414
0.449996
0.449575
0.449152
0.448727
0.4483
0.44787
0.447439
0.447007
0.446573
0.446137
0.445701
0.445263
0.444825
0.444386
0.443946
0.443506
0.443065
0.442625
0.442184
0.441743
0.441302
0.440862
0.440422
0.439982
0.439543
0.439104
0.438667
0.43823
0.437793
0.437358
0.436924
0.436491
0.436059
0.435629
0.435199
0.434771
0.434345
0.43392
0.433496
0.433073
0.432652
0.432232
0.431814
0.431396
0.430981
0.430564
0.430151
0.429737
0.429333
0.536939
0.53848
0.539826
0.540971
0.541942
0.542774
0.543496
0.54413
0.54469
0.545186
0.545625
0.546013
0.546355
0.546656
0.546919
0.547148
0.547346
0.547515
0.54766
0.547781
0.547882
0.547964
0.548029
0.548078
0.548115
0.548138
0.548151
0.548153
0.548146
0.548131
0.548108
0.548077
0.54804
0.547997
0.547948
0.547893
0.547833
0.547768
0.547697
0.547621
0.547539
0.547452
0.54736
0.547262
0.547159
0.547049
0.546933
0.546811
0.546683
0.546547
0.546405
0.546255
0.546097
0.545932
0.545759
0.545578
0.545388
0.54519
0.544983
0.544767
0.544542
0.544308
0.544064
0.543812
0.543549
0.543278
0.542997
0.542706
0.542406
0.542096
0.541777
0.541449
0.541111
0.540762
0.540405
0.540038
0.539663
0.539279
0.538886
0.538486
0.538077
0.53766
0.537235
0.536803
0.536363
0.535916
0.535462
0.535001
0.534533
0.53406
0.53358
0.533094
0.532602
0.532105
0.531603
0.531095
0.530583
0.530066
0.529545
0.52902
0.528491
0.527959
0.527423
0.526884
0.526342
0.525797
0.525249
0.524699
0.524147
0.523594
0.523038
0.522481
0.521922
0.521362
0.520801
0.52024
0.519677
0.519114
0.518551
0.517988
0.517424
0.516861
0.516298
0.515735
0.515173
0.514611
0.51405
0.51349
0.512932
0.512374
0.511817
0.511262
0.510709
0.510156
0.509606
0.509057
0.50851
0.507965
0.507422
0.506881
0.506342
0.505805
0.505269
0.504736
0.504204
0.503675
0.503145
0.50262
0.502094
0.501585
0.621037
0.622695
0.624252
0.625667
0.626937
0.628075
0.629101
0.630028
0.630869
0.631633
0.632327
0.632956
0.633527
0.634043
0.634509
0.634929
0.635306
0.635644
0.635946
0.636215
0.636454
0.636666
0.636852
0.637014
0.637156
0.637278
0.637381
0.637469
0.637541
0.637598
0.637643
0.637675
0.637695
0.637704
0.637703
0.637692
0.637671
0.63764
0.637601
0.637552
0.637494
0.637427
0.637351
0.637265
0.637171
0.637067
0.636953
0.63683
0.636697
0.636553
0.636399
0.636235
0.63606
0.635874
0.635676
0.635468
0.635247
0.635015
0.634771
0.634515
0.634247
0.633967
0.633675
0.63337
0.633052
0.632723
0.632381
0.632026
0.631659
0.63128
0.630889
0.630485
0.63007
0.629642
0.629201
0.628749
0.628286
0.627811
0.627326
0.62683
0.626324
0.625808
0.625281
0.624745
0.624199
0.623645
0.623081
0.622508
0.621927
0.621338
0.620741
0.620136
0.619524
0.618905
0.618279
0.617647
0.617009
0.616365
0.615715
0.61506
0.6144
0.613735
0.613066
0.612393
0.611716
0.611035
0.610351
0.609663
0.608973
0.60828
0.607585
0.606888
0.606189
0.605488
0.604785
0.604082
0.603377
0.602672
0.601966
0.601259
0.600553
0.599846
0.59914
0.598434
0.597728
0.597023
0.596319
0.595616
0.594915
0.594214
0.593516
0.592818
0.592123
0.591429
0.590738
0.590049
0.589362
0.588677
0.587995
0.587316
0.586639
0.585965
0.585293
0.584624
0.583957
0.583294
0.582631
0.581972
0.581314
0.580681
0.713508
0.715217
0.716896
0.718492
0.719985
0.721369
0.722652
0.723842
0.724945
0.725969
0.726919
0.727798
0.728611
0.729362
0.730054
0.730691
0.731277
0.731814
0.732306
0.732757
0.733168
0.733543
0.733884
0.734194
0.734475
0.734729
0.734957
0.735162
0.735344
0.735506
0.735648
0.735772
0.735878
0.735967
0.73604
0.736098
0.73614
0.736168
0.736181
0.736181
0.736167
0.736138
0.736096
0.73604
0.73597
0.735887
0.735789
0.735677
0.735551
0.73541
0.735255
0.735084
0.734899
0.734699
0.734483
0.734252
0.734005
0.733742
0.733464
0.733169
0.732859
0.732533
0.73219
0.731831
0.731456
0.731066
0.730659
0.730236
0.729798
0.729343
0.728874
0.728388
0.727888
0.727372
0.726841
0.726294
0.725733
0.725158
0.72457
0.723968
0.723353
0.722726
0.722085
0.721433
0.720768
0.720092
0.719404
0.718706
0.717997
0.717277
0.716548
0.715809
0.715061
0.714304
0.713538
0.712765
0.711983
0.711195
0.710399
0.709596
0.708787
0.707972
0.707151
0.706325
0.705494
0.704658
0.703817
0.702973
0.702125
0.701273
0.700418
0.699561
0.698701
0.697838
0.696973
0.696107
0.695239
0.69437
0.6935
0.69263
0.691759
0.690887
0.690016
0.689145
0.688274
0.687404
0.686535
0.685667
0.6848
0.683935
0.683071
0.682209
0.68135
0.680492
0.679638
0.678785
0.677936
0.677089
0.676246
0.675405
0.674568
0.673734
0.672903
0.672077
0.671252
0.670432
0.669614
0.668801
0.667989
0.667212
0.815206
0.816923
0.81866
0.820365
0.822008
0.823573
0.825058
0.826462
0.82779
0.829045
0.830229
0.831344
0.832393
0.833378
0.834301
0.835165
0.835973
0.836727
0.837429
0.838084
0.838692
0.839257
0.839782
0.840268
0.840717
0.841133
0.841516
0.841868
0.842191
0.842487
0.842756
0.843
0.84322
0.843417
0.843591
0.843744
0.843876
0.843987
0.844077
0.844148
0.844199
0.84423
0.844242
0.844234
0.844207
0.84416
0.844094
0.844008
0.843902
0.843776
0.84363
0.843465
0.843279
0.843072
0.842845
0.842598
0.84233
0.842041
0.841731
0.841401
0.84105
0.840678
0.840285
0.839872
0.839438
0.838983
0.838509
0.838014
0.837499
0.836964
0.83641
0.835836
0.835243
0.834632
0.834001
0.833351
0.832684
0.831999
0.831297
0.830578
0.829843
0.829092
0.828325
0.827543
0.826746
0.825935
0.82511
0.824271
0.823419
0.822554
0.821677
0.820788
0.819887
0.818975
0.818053
0.817121
0.816179
0.815228
0.814268
0.813299
0.812322
0.811338
0.810346
0.809348
0.808343
0.807333
0.806316
0.805295
0.804268
0.803237
0.802202
0.801163
0.800121
0.799076
0.798027
0.796977
0.795924
0.79487
0.793814
0.792756
0.791698
0.79064
0.789581
0.788522
0.787463
0.786405
0.785348
0.784291
0.783236
0.782183
0.781131
0.780082
0.779034
0.77799
0.776948
0.775909
0.774873
0.77384
0.772811
0.771786
0.770765
0.769748
0.768734
0.767726
0.76672
0.76572
0.764721
0.76373
0.762741
0.761799
0.927061
0.928762
0.930514
0.932273
0.934006
0.935692
0.937321
0.938888
0.940393
0.941836
0.943218
0.944538
0.945799
0.946999
0.94814
0.949223
0.95025
0.951222
0.95214
0.953007
0.953825
0.954595
0.955319
0.956
0.956638
0.957237
0.957798
0.958322
0.95881
0.959265
0.959687
0.960077
0.960436
0.960766
0.961067
0.96134
0.961585
0.961802
0.961993
0.962156
0.962294
0.962405
0.96249
0.962549
0.962582
0.962589
0.96257
0.962524
0.962452
0.962354
0.96223
0.962079
0.961902
0.961698
0.961467
0.96121
0.960926
0.960615
0.960278
0.959914
0.959524
0.959108
0.958665
0.958196
0.957701
0.95718
0.956634
0.956063
0.955466
0.954846
0.954201
0.953531
0.952839
0.952123
0.951384
0.950622
0.949838
0.949032
0.948206
0.947359
0.946491
0.945604
0.944698
0.943774
0.942831
0.94187
0.940892
0.939898
0.938887
0.937861
0.93682
0.935764
0.934694
0.933611
0.932515
0.931406
0.930285
0.929153
0.92801
0.926857
0.925693
0.92452
0.923338
0.922148
0.92095
0.919744
0.918531
0.917312
0.916086
0.914855
0.913618
0.912376
0.91113
0.90988
0.908626
0.907369
0.906109
0.904847
0.903582
0.902315
0.901048
0.899779
0.898509
0.897239
0.895969
0.894699
0.89343
0.892161
0.890894
0.889629
0.888365
0.887103
0.885844
0.884587
0.883334
0.882084
0.880837
0.879594
0.878355
0.87712
0.87589
0.874664
0.873443
0.872228
0.871016
0.86981
0.868608
0.867413
0.866221
0.865092
1.05009
1.05176
1.0535
1.05528
1.05705
1.05881
1.06053
1.06221
1.06385
1.06543
1.06697
1.06846
1.06989
1.07128
1.07261
1.07389
1.07511
1.07629
1.07741
1.07848
1.07951
1.08048
1.08141
1.08229
1.08313
1.08392
1.08467
1.08538
1.08605
1.08668
1.08728
1.08783
1.08835
1.08883
1.08928
1.08969
1.09007
1.09041
1.09072
1.09099
1.09123
1.09144
1.09162
1.09176
1.09187
1.09194
1.09198
1.09199
1.09196
1.0919
1.09181
1.09168
1.09152
1.09133
1.0911
1.09084
1.09054
1.09021
1.08985
1.08945
1.08902
1.08856
1.08807
1.08754
1.08698
1.08639
1.08577
1.08511
1.08443
1.08372
1.08297
1.0822
1.0814
1.08057
1.07971
1.07883
1.07792
1.07698
1.07601
1.07503
1.07401
1.07298
1.07192
1.07084
1.06973
1.06861
1.06746
1.0663
1.06511
1.06391
1.06268
1.06144
1.06019
1.05891
1.05762
1.05632
1.055
1.05367
1.05232
1.05097
1.0496
1.04821
1.04682
1.04542
1.04401
1.04259
1.04115
1.03972
1.03827
1.03682
1.03536
1.03389
1.03242
1.03094
1.02946
1.02797
1.02648
1.02499
1.02349
1.02199
1.02049
1.01899
1.01748
1.01598
1.01447
1.01297
1.01146
1.00996
1.00846
1.00695
1.00545
1.00395
1.00246
1.00096
0.999474
0.997988
0.996505
0.995026
0.993552
0.992082
0.990617
0.989158
0.987704
0.986255
0.984812
0.983376
0.981943
0.980518
0.9791
0.977762
1.18541
1.18705
1.18876
1.19053
1.19231
1.1941
1.19588
1.19763
1.19935
1.20104
1.20269
1.2043
1.20587
1.20739
1.20888
1.21032
1.21172
1.21307
1.21437
1.21563
1.21684
1.21801
1.21913
1.22021
1.22124
1.22222
1.22316
1.22406
1.22491
1.22572
1.22649
1.22722
1.22791
1.22855
1.22915
1.22971
1.23023
1.23071
1.23115
1.23155
1.23191
1.23222
1.2325
1.23273
1.23292
1.23307
1.23318
1.23325
1.23328
1.23326
1.2332
1.2331
1.23296
1.23278
1.23255
1.23228
1.23198
1.23163
1.23124
1.2308
1.23033
1.22982
1.22927
1.22868
1.22805
1.22738
1.22667
1.22593
1.22515
1.22433
1.22348
1.22259
1.22167
1.22072
1.21973
1.21871
1.21766
1.21657
1.21546
1.21431
1.21314
1.21194
1.21071
1.20946
1.20817
1.20687
1.20554
1.20418
1.2028
1.2014
1.19998
1.19854
1.19707
1.19559
1.19409
1.19257
1.19103
1.18948
1.18791
1.18633
1.18473
1.18312
1.1815
1.17986
1.17821
1.17655
1.17488
1.1732
1.17151
1.16981
1.16811
1.16639
1.16467
1.16295
1.16121
1.15947
1.15773
1.15598
1.15423
1.15247
1.15072
1.14896
1.14719
1.14543
1.14366
1.1419
1.14013
1.13837
1.1366
1.13484
1.13308
1.13132
1.12956
1.1278
1.12605
1.1243
1.12256
1.12082
1.11908
1.11735
1.11563
1.11391
1.1122
1.11049
1.10879
1.10709
1.1054
1.10373
1.10205
1.10048
1.33425
1.33585
1.33753
1.33927
1.34105
1.34284
1.34464
1.34643
1.3482
1.34995
1.35167
1.35337
1.35503
1.35667
1.35827
1.35983
1.36136
1.36285
1.36431
1.36572
1.3671
1.36843
1.36972
1.37097
1.37217
1.37333
1.37445
1.37552
1.37655
1.37753
1.37847
1.37937
1.38022
1.38102
1.38177
1.38248
1.38315
1.38376
1.38433
1.38485
1.38532
1.38574
1.38612
1.38644
1.38672
1.38694
1.38712
1.38724
1.38732
1.38734
1.38731
1.38724
1.38711
1.38693
1.3867
1.38643
1.3861
1.38572
1.38529
1.38482
1.3843
1.38372
1.3831
1.38244
1.38172
1.38097
1.38016
1.37932
1.37842
1.37749
1.37651
1.3755
1.37444
1.37334
1.3722
1.37103
1.36982
1.36857
1.36729
1.36597
1.36462
1.36324
1.36182
1.36037
1.35889
1.35738
1.35584
1.35428
1.35269
1.35107
1.34943
1.34776
1.34607
1.34435
1.34262
1.34086
1.33909
1.33729
1.33548
1.33365
1.3318
1.32994
1.32806
1.32616
1.32426
1.32233
1.3204
1.31846
1.3165
1.31453
1.31256
1.31057
1.30858
1.30658
1.30457
1.30256
1.30053
1.29851
1.29648
1.29444
1.2924
1.29036
1.28831
1.28627
1.28422
1.28217
1.28012
1.27806
1.27601
1.27396
1.27191
1.26987
1.26782
1.26578
1.26374
1.2617
1.25967
1.25765
1.25562
1.25361
1.2516
1.24959
1.24759
1.2456
1.24362
1.24164
1.23967
1.23771
1.23576
1.23394
1.49796
1.49953
1.50116
1.50287
1.50462
1.5064
1.5082
1.51
1.51179
1.51357
1.51534
1.51709
1.51882
1.52053
1.52221
1.52386
1.52549
1.52709
1.52865
1.53019
1.53169
1.53315
1.53458
1.53597
1.53732
1.53863
1.53989
1.54112
1.5423
1.54343
1.54452
1.54556
1.54655
1.5475
1.54839
1.54923
1.55002
1.55075
1.55143
1.55206
1.55263
1.55315
1.55361
1.55401
1.55435
1.55463
1.55486
1.55503
1.55514
1.55518
1.55517
1.5551
1.55497
1.55478
1.55453
1.55423
1.55386
1.55344
1.55295
1.55241
1.55182
1.55117
1.55046
1.5497
1.54888
1.54801
1.54709
1.54612
1.54509
1.54402
1.54289
1.54172
1.54051
1.53925
1.53794
1.53659
1.5352
1.53377
1.53229
1.53077
1.52922
1.52763
1.526
1.52433
1.52263
1.52089
1.51913
1.51733
1.5155
1.51364
1.51175
1.50983
1.50789
1.50592
1.50392
1.50191
1.49987
1.4978
1.49572
1.49362
1.49149
1.48935
1.48719
1.48502
1.48282
1.48062
1.4784
1.47616
1.47392
1.47166
1.46939
1.4671
1.46481
1.46251
1.46021
1.45789
1.45557
1.45324
1.4509
1.44856
1.44621
1.44386
1.44151
1.43915
1.43679
1.43443
1.43207
1.42971
1.42735
1.42498
1.42262
1.42026
1.41791
1.41555
1.4132
1.41085
1.40851
1.40617
1.40383
1.4015
1.39918
1.39687
1.39456
1.39226
1.38996
1.38767
1.38539
1.38313
1.38087
1.37878
1.67802
1.67955
1.68115
1.68282
1.68453
1.68628
1.68806
1.68986
1.69166
1.69345
1.69524
1.69702
1.69879
1.70054
1.70227
1.70398
1.70567
1.70734
1.70898
1.7106
1.71219
1.71375
1.71528
1.71677
1.71823
1.71965
1.72103
1.72237
1.72366
1.72491
1.72611
1.72727
1.72837
1.72942
1.73041
1.73135
1.73223
1.73305
1.73382
1.73452
1.73516
1.73573
1.73624
1.73668
1.73706
1.73737
1.73762
1.73779
1.7379
1.73794
1.73791
1.73781
1.73765
1.73741
1.73711
1.73674
1.7363
1.7358
1.73523
1.73459
1.73389
1.73313
1.7323
1.73141
1.73045
1.72944
1.72837
1.72723
1.72605
1.7248
1.7235
1.72214
1.72074
1.71928
1.71777
1.71622
1.71461
1.71296
1.71126
1.70952
1.70773
1.70589
1.70402
1.70211
1.70015
1.69816
1.69613
1.69407
1.69197
1.68984
1.68767
1.68548
1.68325
1.681
1.67871
1.67641
1.67407
1.67171
1.66933
1.66692
1.6645
1.66205
1.65958
1.6571
1.6546
1.65207
1.64954
1.64699
1.64442
1.64184
1.63925
1.63664
1.63403
1.6314
1.62877
1.62612
1.62347
1.62081
1.61814
1.61547
1.61279
1.61011
1.60742
1.60473
1.60204
1.59934
1.59664
1.59394
1.59124
1.58854
1.58584
1.58315
1.58045
1.57776
1.57507
1.57238
1.5697
1.56702
1.56435
1.56168
1.55902
1.55637
1.55372
1.55109
1.54846
1.54583
1.54322
1.54062
1.53804
1.53565
1.87606
1.87756
1.87912
1.88075
1.88242
1.88414
1.88589
1.88766
1.88945
1.89124
1.89304
1.89483
1.89661
1.89838
1.90014
1.90189
1.90362
1.90533
1.90702
1.90869
1.91033
1.91195
1.91354
1.9151
1.91662
1.91811
1.91956
1.92097
1.92233
1.92365
1.92491
1.92613
1.92729
1.9284
1.92944
1.93043
1.93135
1.9322
1.93299
1.93371
1.93437
1.93495
1.93545
1.93589
1.93625
1.93653
1.93674
1.93687
1.93692
1.9369
1.9368
1.93662
1.93637
1.93603
1.93563
1.93514
1.93458
1.93394
1.93323
1.93245
1.93159
1.93066
1.92967
1.9286
1.92746
1.92625
1.92498
1.92364
1.92224
1.92078
1.91926
1.91767
1.91603
1.91434
1.91259
1.91078
1.90892
1.907
1.90504
1.90302
1.90096
1.89885
1.89669
1.89449
1.89224
1.88995
1.88763
1.88526
1.88285
1.88041
1.87794
1.87543
1.87288
1.87031
1.8677
1.86507
1.86241
1.85972
1.857
1.85426
1.8515
1.84871
1.84591
1.84308
1.84023
1.83737
1.83448
1.83158
1.82867
1.82574
1.82279
1.81984
1.81687
1.81389
1.81089
1.80789
1.80488
1.80186
1.79884
1.7958
1.79277
1.78972
1.78667
1.78362
1.78056
1.7775
1.77444
1.77138
1.76831
1.76525
1.76219
1.75913
1.75606
1.75301
1.74995
1.7469
1.74385
1.74081
1.73778
1.73475
1.73172
1.72871
1.7257
1.7227
1.71971
1.71673
1.71375
1.71079
1.70786
1.70517
2.09389
2.09535
2.09687
2.09845
2.10009
2.10177
2.10349
2.10523
2.107
2.10877
2.11056
2.11234
2.11413
2.11591
2.11768
2.11944
2.12118
2.12291
2.12463
2.12632
2.12798
2.12962
2.13124
2.13282
2.13436
2.13587
2.13734
2.13876
2.14014
2.14146
2.14274
2.14395
2.14511
2.1462
2.14723
2.14819
2.14908
2.14989
2.15064
2.1513
2.15189
2.1524
2.15283
2.15317
2.15343
2.15361
2.1537
2.15371
2.15363
2.15347
2.15322
2.15289
2.15246
2.15196
2.15137
2.15069
2.14994
2.14909
2.14817
2.14717
2.14609
2.14493
2.14369
2.14237
2.14098
2.13952
2.13798
2.13638
2.1347
2.13296
2.13116
2.12929
2.12736
2.12536
2.12331
2.12119
2.11902
2.11679
2.1145
2.11216
2.10977
2.10732
2.10483
2.10229
2.09971
2.09707
2.0944
2.09168
2.08893
2.08613
2.0833
2.08043
2.07752
2.07458
2.07161
2.06861
2.06558
2.06252
2.05943
2.05632
2.05318
2.05002
2.04683
2.04362
2.0404
2.03715
2.03388
2.0306
2.0273
2.02398
2.02065
2.01731
2.01395
2.01058
2.0072
2.00381
2.00041
1.997
1.99359
1.99016
1.98673
1.9833
1.97986
1.97641
1.97296
1.96951
1.96606
1.9626
1.95914
1.95569
1.95223
1.94878
1.94533
1.94188
1.93843
1.93499
1.93155
1.92812
1.92469
1.92127
1.91786
1.91445
1.91105
1.90767
1.90429
1.90092
1.89756
1.89422
1.89091
1.88789
2.33345
2.33488
2.33637
2.33791
2.33951
2.34115
2.34283
2.34454
2.34627
2.34802
2.34979
2.35156
2.35334
2.35511
2.35687
2.35863
2.36037
2.3621
2.36381
2.36549
2.36715
2.36878
2.37038
2.37194
2.37346
2.37493
2.37636
2.37774
2.37906
2.38032
2.38153
2.38266
2.38373
2.38473
2.38565
2.38649
2.38726
2.38794
2.38854
2.38905
2.38947
2.38981
2.39005
2.3902
2.39026
2.39023
2.39011
2.38989
2.38957
2.38916