/*--------------------------------*- C++ -*----------------------------------*\
| =========                 |                                                 |
| \\      /  F ield         | OpenFOAM: The Open Source CFD Toolbox           |
|  \\    /   O peration     | Version:  5.x                                   |
|   \\  /    A nd           | Web:      www.OpenFOAM.org                      |
|    \\/     M anipulation  |                                                 |
\*---------------------------------------------------------------------------*/
FoamFile
{
    version     2.0;
    format      ascii;
    class       volScalarField;
    location    "0";
    object      epsilon;
}
// * * * * * * * * * * * * * * * * * * * * * * * * * * * * * * * * * * * * * //

dimensions      [0 2 -3 0 0 0 0];

internalField   nonuniform List<scalar> 
21600
(
12.6645
12.4533
12.3382
12.2989
12.2875
12.2861
12.2894
12.2955
12.3032
12.3118
12.3208
12.3299
12.3392
12.3483
12.3573
12.3662
12.3748
12.3832
12.3914
12.3994
12.4072
12.4147
12.422
12.4292
12.4361
12.4428
12.4493
12.4556
12.4618
12.4678
12.4736
12.4793
12.4848
12.4902
12.4954
12.5005
12.5054
12.5102
12.5148
12.5193
12.5237
12.528
12.5321
12.536
12.5399
12.5435
12.5471
12.5504
12.5537
12.5568
12.5597
12.5624
12.565
12.5674
12.5697
12.5717
12.5736
12.5753
12.5768
12.5781
12.5791
12.58
12.5807
12.5812
12.5814
12.5814
12.5812
12.5808
12.5801
12.5792
12.5781
12.5768
12.5752
12.5733
12.5713
12.569
12.5664
12.5636
12.5606
12.5574
12.5539
12.5502
12.5462
12.542
12.5376
12.533
12.5281
12.523
12.5177
12.5122
12.5065
12.5006
12.4944
12.4881
12.4815
12.4747
12.4678
12.4606
12.4533
12.4458
12.4381
12.4302
12.4222
12.414
12.4056
12.397
12.3883
12.3795
12.3705
12.3613
12.3521
12.3427
12.3331
12.3235
12.3137
12.3038
12.2938
12.2837
12.2735
12.2633
12.2529
12.2425
12.232
12.2214
12.2108
12.2001
12.1894
12.1787
12.1679
12.1571
12.1464
12.1356
12.1249
12.1141
12.1034
12.0928
12.0822
12.0717
12.0613
12.0509
12.0407
12.0305
12.0206
12.0105
12.001
11.9906
11.9822
11.9707
11.9646
11.95
4.63686
4.74417
4.75612
4.75557
4.75544
4.7569
4.75951
4.76278
4.76646
4.77037
4.77439
4.77845
4.78249
4.78647
4.79039
4.79422
4.79795
4.80158
4.80511
4.80854
4.81186
4.81508
4.81821
4.82124
4.82419
4.82704
4.82981
4.8325
4.83511
4.83764
4.84011
4.8425
4.84482
4.84708
4.84928
4.85141
4.85348
4.85549
4.85744
4.85934
4.86117
4.86295
4.86468
4.86634
4.86795
4.8695
4.87099
4.87242
4.87378
4.87509
4.87634
4.87752
4.87863
4.87968
4.88065
4.88156
4.8824
4.88316
4.88385
4.88447
4.885
4.88546
4.88584
4.88613
4.88634
4.88648
4.88652
4.88647
4.88634
4.88611
4.8858
4.8854
4.88491
4.88433
4.88366
4.8829
4.88205
4.8811
4.88007
4.87894
4.87773
4.87642
4.87503
4.87355
4.87198
4.87032
4.86858
4.86675
4.86483
4.86283
4.86075
4.85859
4.85634
4.85402
4.85161
4.84913
4.84657
4.84394
4.84123
4.83845
4.8356
4.83267
4.82968
4.82663
4.82351
4.82032
4.81707
4.81377
4.8104
4.80698
4.8035
4.79997
4.79639
4.79275
4.78907
4.78535
4.78158
4.77776
4.77391
4.77003
4.7661
4.76215
4.75816
4.75414
4.75011
4.74604
4.74196
4.73787
4.73376
4.72963
4.72551
4.72137
4.71725
4.71312
4.70901
4.70489
4.70081
4.69674
4.69271
4.68868
4.68472
4.68075
4.67688
4.67295
4.66921
4.6653
4.66175
4.65771
4.65456
4.6501
2.48821
2.55282
2.57227
2.57853
2.58124
2.5833
2.58528
2.5873
2.58937
2.59149
2.59364
2.5958
2.59796
2.6001
2.60221
2.60428
2.6063
2.60828
2.61021
2.61209
2.61392
2.6157
2.61743
2.61911
2.62074
2.62233
2.62388
2.62538
2.62684
2.62826
2.62965
2.63099
2.6323
2.63357
2.6348
2.636
2.63717
2.63831
2.63941
2.64048
2.64152
2.64252
2.6435
2.64444
2.64535
2.64623
2.64707
2.64789
2.64866
2.64941
2.65012
2.65079
2.65143
2.65203
2.65259
2.65312
2.6536
2.65405
2.65445
2.65482
2.65514
2.65542
2.65566
2.65585
2.656
2.6561
2.65616
2.65617
2.65613
2.65604
2.65591
2.65573
2.6555
2.65522
2.65489
2.65452
2.65409
2.65362
2.6531
2.65253
2.65191
2.65125
2.65053
2.64977
2.64896
2.6481
2.6472
2.64625
2.64526
2.64422
2.64314
2.64201
2.64083
2.63962
2.63836
2.63706
2.63572
2.63434
2.63291
2.63145
2.62995
2.62841
2.62684
2.62522
2.62358
2.62189
2.62018
2.61843
2.61665
2.61483
2.61299
2.61112
2.60921
2.60728
2.60533
2.60335
2.60134
2.59931
2.59725
2.59518
2.59308
2.59097
2.58883
2.58668
2.58452
2.58234
2.58014
2.57794
2.57572
2.5735
2.57127
2.56903
2.56679
2.56455
2.56231
2.56006
2.55783
2.5556
2.55339
2.55117
2.54898
2.54679
2.54464
2.54248
2.54036
2.53824
2.53617
2.53407
2.53206
2.52994
1.63202
1.66006
1.67171
1.67673
1.67918
1.68077
1.68207
1.68326
1.68444
1.68562
1.68682
1.68804
1.68927
1.6905
1.69173
1.69295
1.69416
1.69535
1.69652
1.69767
1.6988
1.69991
1.70099
1.70205
1.70308
1.70409
1.70507
1.70604
1.70697
1.70789
1.70878
1.70965
1.7105
1.71133
1.71213
1.71292
1.71369
1.71443
1.71515
1.71586
1.71654
1.71721
1.71785
1.71847
1.71907
1.71965
1.72021
1.72075
1.72127
1.72176
1.72223
1.72268
1.72311
1.72351
1.72389
1.72424
1.72456
1.72486
1.72514
1.72539
1.72561
1.7258
1.72596
1.7261
1.72621
1.72628
1.72633
1.72635
1.72634
1.7263
1.72623
1.72612
1.72599
1.72582
1.72562
1.72539
1.72513
1.72484
1.72452
1.72417
1.72378
1.72337
1.72293
1.72245
1.72195
1.72141
1.72085
1.72025
1.71963
1.71898
1.71829
1.71759
1.71685
1.71608
1.71529
1.71447
1.71363
1.71275
1.71186
1.71093
1.70999
1.70901
1.70802
1.707
1.70596
1.70489
1.7038
1.7027
1.70157
1.70042
1.69925
1.69806
1.69685
1.69563
1.69438
1.69312
1.69184
1.69055
1.68924
1.68792
1.68658
1.68523
1.68387
1.68249
1.6811
1.67971
1.6783
1.67688
1.67546
1.67402
1.67258
1.67114
1.66969
1.66824
1.66678
1.66533
1.66387
1.66241
1.66096
1.65951
1.65807
1.65663
1.6552
1.65377
1.65236
1.65096
1.64956
1.6482
1.6468
1.64548
1.18851
1.19852
1.20333
1.20551
1.20659
1.20724
1.20774
1.20821
1.2087
1.20922
1.20978
1.21038
1.21101
1.21167
1.21234
1.21303
1.21373
1.21443
1.21514
1.21584
1.21654
1.21723
1.21792
1.2186
1.21927
1.21992
1.22057
1.22121
1.22183
1.22245
1.22305
1.22364
1.22422
1.22478
1.22533
1.22588
1.2264
1.22692
1.22742
1.22791
1.22839
1.22885
1.2293
1.22974
1.23016
1.23057
1.23097
1.23135
1.23171
1.23206
1.23239
1.23271
1.23301
1.23329
1.23356
1.2338
1.23403
1.23425
1.23444
1.23461
1.23477
1.2349
1.23502
1.23511
1.23519
1.23524
1.23528
1.23529
1.23528
1.23525
1.2352
1.23512
1.23503
1.23491
1.23477
1.2346
1.23442
1.23421
1.23399
1.23374
1.23347
1.23317
1.23286
1.23252
1.23217
1.23179
1.23139
1.23097
1.23054
1.23008
1.2296
1.2291
1.22858
1.22804
1.22749
1.22691
1.22632
1.2257
1.22507
1.22443
1.22376
1.22308
1.22238
1.22166
1.22093
1.22018
1.21942
1.21864
1.21785
1.21704
1.21622
1.21539
1.21454
1.21368
1.2128
1.21192
1.21102
1.21011
1.20919
1.20826
1.20732
1.20636
1.2054
1.20443
1.20345
1.20246
1.20147
1.20047
1.19946
1.19844
1.19742
1.19639
1.19536
1.19433
1.19329
1.19224
1.1912
1.19016
1.18911
1.18806
1.18702
1.18598
1.18494
1.18391
1.18287
1.18186
1.18083
1.17983
1.1788
1.17785
0.918662
0.921286
0.922227
0.922315
0.922103
0.921839
0.921619
0.921474
0.921411
0.921425
0.92151
0.921657
0.921857
0.922103
0.922387
0.922701
0.923041
0.923401
0.923777
0.924165
0.924563
0.924967
0.925376
0.925789
0.926202
0.926616
0.927028
0.927439
0.927846
0.92825
0.92865
0.929045
0.929435
0.92982
0.930198
0.93057
0.930936
0.931294
0.931646
0.931989
0.932324
0.932652
0.93297
0.93328
0.93358
0.93387
0.934151
0.934421
0.934681
0.93493
0.935167
0.935392
0.935606
0.935807
0.935995
0.936171
0.936333
0.936481
0.936616
0.936736
0.936842
0.936933
0.937009
0.93707
0.937116
0.937147
0.937161
0.93716
0.937144
0.937112
0.937064
0.937
0.936918
0.936819
0.936704
0.936573
0.936425
0.936261
0.936081
0.935885
0.935673
0.935445
0.935202
0.934943
0.934668
0.934378
0.934072
0.933752
0.933416
0.933065
0.9327
0.93232
0.931925
0.931517
0.931094
0.930658
0.930208
0.929744
0.929267
0.928778
0.928275
0.92776
0.927233
0.926694
0.926143
0.92558
0.925006
0.924421
0.923825
0.923218
0.922601
0.921974
0.921337
0.92069
0.920034
0.919368
0.918694
0.918011
0.91732
0.91662
0.915913
0.915198
0.914475
0.913746
0.913009
0.912267
0.911518
0.910763
0.910002
0.909236
0.908465
0.90769
0.90691
0.906126
0.905339
0.904548
0.903755
0.90296
0.902162
0.901364
0.900565
0.899767
0.898968
0.898173
0.897375
0.896589
0.895792
0.895021
0.89422
0.893483
0.736829
0.736867
0.736202
0.735216
0.734213
0.733326
0.732585
0.731986
0.731514
0.731153
0.730888
0.730704
0.730589
0.730534
0.73053
0.730569
0.730645
0.730751
0.730884
0.73104
0.731214
0.731404
0.731607
0.731821
0.732044
0.732274
0.732511
0.732751
0.732996
0.733242
0.733491
0.733739
0.733988
0.734237
0.734484
0.734729
0.734972
0.735212
0.735449
0.735682
0.735911
0.736136
0.736355
0.736569
0.736777
0.736978
0.737173
0.737361
0.737542
0.737715
0.737879
0.738036
0.738183
0.738321
0.73845
0.738569
0.738678
0.738777
0.738865
0.738942
0.739008
0.739063
0.739106
0.739138
0.739157
0.739165
0.739161
0.739144
0.739115
0.739075
0.739022
0.738957
0.738878
0.738787
0.738682
0.738564
0.738434
0.738292
0.738136
0.737969
0.737789
0.737597
0.737393
0.737178
0.73695
0.73671
0.736459
0.736196
0.735921
0.735635
0.735338
0.73503
0.73471
0.73438
0.734039
0.733688
0.733327
0.732955
0.732573
0.732182
0.73178
0.73137
0.73095
0.73052
0.730082
0.729636
0.72918
0.728716
0.728244
0.727764
0.727276
0.726781
0.726278
0.725767
0.725249
0.724725
0.724193
0.723655
0.723111
0.72256
0.722003
0.721441
0.720872
0.720298
0.719719
0.719134
0.718545
0.71795
0.717351
0.716748
0.71614
0.715529
0.714914
0.714295
0.713672
0.713047
0.712418
0.711788
0.711155
0.71052
0.709884
0.709247
0.708608
0.707972
0.707333
0.7067
0.70606
0.705437
0.704794
0.704198
0.605831
0.605169
0.604097
0.602805
0.601512
0.600338
0.599318
0.59845
0.597722
0.597115
0.596612
0.5962
0.595865
0.595597
0.595387
0.595226
0.595109
0.59503
0.594983
0.594965
0.594971
0.594999
0.595046
0.595109
0.595187
0.595277
0.595377
0.595487
0.595605
0.595729
0.595859
0.595994
0.596133
0.596274
0.596418
0.596564
0.59671
0.596857
0.597004
0.59715
0.597295
0.597438
0.597578
0.597716
0.597851
0.597982
0.598109
0.598231
0.598348
0.598461
0.598567
0.598668
0.598762
0.598849
0.598929
0.599002
0.599068
0.599125
0.599175
0.599215
0.599248
0.599271
0.599286
0.599291
0.599287
0.599273
0.59925
0.599217
0.599174
0.599122
0.59906
0.598989
0.598907
0.598815
0.598713
0.5986
0.598477
0.598344
0.598201
0.598049
0.597886
0.597714
0.597533
0.597342
0.597142
0.596932
0.596714
0.596486
0.596249
0.596003
0.595748
0.595485
0.595213
0.594933
0.594644
0.594348
0.594043
0.59373
0.59341
0.593082
0.592746
0.592403
0.592053
0.591696
0.591333
0.590962
0.590585
0.590201
0.589811
0.589415
0.589013
0.588605
0.588191
0.587771
0.587346
0.586916
0.586481
0.58604
0.585594
0.585144
0.584689
0.584229
0.583764
0.583296
0.582823
0.582346
0.581865
0.58138
0.580892
0.5804
0.579904
0.579406
0.578903
0.578398
0.57789
0.577379
0.576865
0.576349
0.57583
0.57531
0.574788
0.574264
0.573739
0.573214
0.572687
0.572164
0.571635
0.571117
0.570586
0.57009
0.507043
0.506311
0.505326
0.504145
0.502906
0.501719
0.500636
0.499673
0.49883
0.498097
0.497462
0.496914
0.496442
0.496036
0.495689
0.495393
0.495142
0.494932
0.494756
0.494612
0.494496
0.494404
0.494335
0.494284
0.494251
0.494234
0.49423
0.494239
0.494258
0.494287
0.494325
0.49437
0.494421
0.494479
0.494541
0.494607
0.494676
0.494748
0.494823
0.494898
0.494975
0.495052
0.495129
0.495205
0.49528
0.495353
0.495424
0.495493
0.495558
0.49562
0.495679
0.495733
0.495783
0.495828
0.495868
0.495902
0.495931
0.495954
0.49597
0.49598
0.495983
0.495979
0.495968
0.495949
0.495924
0.49589
0.495849
0.4958
0.495744
0.495679
0.495606
0.495526
0.495438
0.495342
0.495237
0.495124
0.495003
0.494873
0.494735
0.494589
0.494436
0.494275
0.494106
0.49393
0.493746
0.493554
0.493355
0.493149
0.492936
0.492715
0.492488
0.492253
0.492012
0.491764
0.491509
0.491249
0.490981
0.490708
0.490428
0.490143
0.489851
0.489554
0.489251
0.488943
0.488629
0.48831
0.487986
0.487657
0.487324
0.486985
0.486642
0.486294
0.485941
0.485585
0.485224
0.484858
0.484489
0.484116
0.483739
0.483359
0.482975
0.482587
0.482195
0.481801
0.481403
0.481002
0.480597
0.48019
0.479779
0.479366
0.47895
0.478531
0.47811
0.477686
0.477259
0.47683
0.476399
0.475965
0.475529
0.475092
0.474652
0.474211
0.473768
0.473326
0.47288
0.472438
0.47199
0.47155
0.471102
0.470679
0.430061
0.429419
0.428653
0.427731
0.426716
0.425685
0.424694
0.423773
0.422934
0.422178
0.421501
0.420898
0.42036
0.419882
0.419458
0.419082
0.418749
0.418454
0.418194
0.417965
0.417764
0.417589
0.417436
0.417304
0.41719
0.417093
0.417012
0.416944
0.416889
0.416845
0.416811
0.416787
0.41677
0.416761
0.416758
0.416761
0.416769
0.416782
0.416798
0.416817
0.416839
0.416862
0.416887
0.416912
0.416938
0.416964
0.41699
0.417014
0.417036
0.417057
0.417076
0.417092
0.417104
0.417114
0.41712
0.417121
0.417119
0.417112
0.4171
0.417083
0.41706
0.417032
0.416999
0.41696
0.416914
0.416863
0.416805
0.416741
0.416671
0.416594
0.416511
0.416421
0.416325
0.416222
0.416113
0.415997
0.415874
0.415744
0.415607
0.415464
0.415314
0.415158
0.414996
0.414828
0.414653
0.414472
0.414285
0.414093
0.413894
0.41369
0.41348
0.413264
0.413043
0.412817
0.412585
0.412348
0.412106
0.411859
0.411607
0.41135
0.411089
0.410823
0.410553
0.410278
0.409999
0.409717
0.40943
0.409139
0.408844
0.408546
0.408243
0.407938
0.407629
0.407316
0.407001
0.406682
0.40636
0.406035
0.405707
0.405376
0.405043
0.404706
0.404367
0.404026
0.403681
0.403335
0.402986
0.402634
0.40228
0.401924
0.401566
0.401205
0.400843
0.400478
0.400111
0.399742
0.399371
0.398999
0.398624
0.398248
0.397869
0.39749
0.397109
0.396728
0.396344
0.395962
0.395576
0.395195
0.394809
0.394442
0.368579
0.368043
0.367478
0.366815
0.36606
0.365255
0.36444
0.363648
0.362897
0.362196
0.361549
0.360956
0.360413
0.359918
0.359468
0.359058
0.358686
0.358348
0.358041
0.357763
0.35751
0.357282
0.357075
0.356889
0.35672
0.356569
0.356432
0.35631
0.356201
0.356104
0.356017
0.35594
0.355872
0.355813
0.35576
0.355715
0.355675
0.355641
0.355611
0.355585
0.355563
0.355543
0.355527
0.355512
0.355498
0.355485
0.355473
0.355461
0.355448
0.355435
0.35542
0.355404
0.355386
0.355366
0.355343
0.355317
0.355288
0.355255
0.355219
0.355179
0.355135
0.355087
0.355034
0.354976
0.354914
0.354846
0.354774
0.354696
0.354613
0.354525
0.354431
0.354332
0.354228
0.354118
0.354003
0.353882
0.353756
0.353624
0.353486
0.353343
0.353194
0.353041
0.352882
0.352717
0.352548
0.352374
0.352194
0.35201
0.351821
0.351627
0.351428
0.351225
0.351017
0.350805
0.350589
0.350368
0.350143
0.349915
0.349682
0.349445
0.349205
0.348961
0.348714
0.348463
0.348209
0.347951
0.347691
0.347427
0.34716
0.34689
0.346618
0.346343
0.346065
0.345784
0.345501
0.345215
0.344928
0.344637
0.344345
0.34405
0.343753
0.343454
0.343154
0.342851
0.342546
0.342239
0.34193
0.34162
0.341308
0.340994
0.340678
0.340361
0.340042
0.339721
0.339399
0.339075
0.338749
0.338422
0.338093
0.337763
0.337431
0.337099
0.336764
0.33643
0.336093
0.335757
0.335419
0.335083
0.334745
0.334422
0.318526
0.318081
0.31766
0.317198
0.31667
0.316087
0.315471
0.314845
0.314228
0.313632
0.313064
0.312528
0.312026
0.311557
0.311121
0.310717
0.310341
0.309994
0.309672
0.309374
0.309099
0.308844
0.308609
0.308392
0.308192
0.308007
0.307836
0.307679
0.307534
0.3074
0.307277
0.307164
0.30706
0.306964
0.306875
0.306794
0.306718
0.306649
0.306584
0.306524
0.306468
0.306416
0.306366
0.306319
0.306274
0.306231
0.306189
0.306147
0.306106
0.306065
0.306024
0.305981
0.305938
0.305893
0.305847
0.305798
0.305747
0.305694
0.305638
0.305578
0.305516
0.30545
0.30538
0.305307
0.30523
0.305149
0.305063
0.304973
0.304879
0.304781
0.304678
0.30457
0.304458
0.304341
0.304221
0.304095
0.303965
0.30383
0.30369
0.303546
0.303397
0.303244
0.303086
0.302924
0.302757
0.302586
0.302411
0.302232
0.302049
0.301862
0.301671
0.301476
0.301278
0.301076
0.30087
0.300661
0.300448
0.300233
0.300014
0.299791
0.299566
0.299338
0.299107
0.298873
0.298636
0.298397
0.298156
0.297912
0.297665
0.297416
0.297165
0.296912
0.296657
0.2964
0.296141
0.295879
0.295617
0.295352
0.295086
0.294818
0.294548
0.294277
0.294004
0.29373
0.293454
0.293177
0.292899
0.292619
0.292338
0.292055
0.291772
0.291487
0.2912
0.290913
0.290624
0.290334
0.290043
0.28975
0.289456
0.289161
0.288865
0.288568
0.28827
0.287971
0.287671
0.287371
0.287069
0.286769
0.286467
0.286179
0.277146
0.276777
0.276451
0.276123
0.275764
0.275363
0.274926
0.274466
0.273995
0.273523
0.27306
0.272611
0.272179
0.271766
0.271374
0.271003
0.270652
0.270322
0.270011
0.269719
0.269444
0.269186
0.268944
0.268716
0.268503
0.268304
0.268116
0.267941
0.267776
0.267622
0.267477
0.267342
0.267214
0.267095
0.266982
0.266876
0.266776
0.266682
0.266593
0.266509
0.266428
0.266351
0.266278
0.266207
0.266138
0.266072
0.266006
0.265943
0.265879
0.265817
0.265754
0.265691
0.265628
0.265563
0.265498
0.265431
0.265363
0.265292
0.265219
0.265144
0.265067
0.264987
0.264903
0.264817
0.264728
0.264635
0.264538
0.264439
0.264335
0.264228
0.264117
0.264002
0.263883
0.263761
0.263634
0.263504
0.26337
0.263233
0.263091
0.262945
0.262795
0.262641
0.262484
0.262323
0.262158
0.261989
0.261817
0.261642
0.261463
0.261281
0.261095
0.260906
0.260714
0.260519
0.260321
0.260121
0.259917
0.25971
0.259501
0.25929
0.259076
0.258859
0.25864
0.258419
0.258196
0.25797
0.257743
0.257513
0.257282
0.257048
0.256814
0.256577
0.256339
0.256099
0.255858
0.255615
0.255371
0.255125
0.254878
0.25463
0.254381
0.254131
0.253879
0.253627
0.253373
0.253119
0.252863
0.252606
0.252349
0.25209
0.25183
0.25157
0.251309
0.251046
0.250783
0.250519
0.250254
0.249988
0.249721
0.249453
0.249184
0.248915
0.248644
0.248374
0.248102
0.24783
0.247557
0.247285
0.247012
0.246751
0.242505
0.242198
0.241936
0.241693
0.241444
0.241173
0.240877
0.240557
0.240219
0.23987
0.239517
0.239164
0.238817
0.238477
0.238147
0.237828
0.237521
0.237227
0.236946
0.236677
0.236421
0.236178
0.235946
0.235725
0.235516
0.235317
0.235128
0.234948
0.234778
0.234616
0.234463
0.234317
0.234178
0.234046
0.233921
0.233801
0.233687
0.233578
0.233473
0.233373
0.233276
0.233183
0.233093
0.233006
0.232921
0.232837
0.232756
0.232676
0.232596
0.232518
0.232439
0.232361
0.232283
0.232203
0.232124
0.232043
0.23196
0.231877
0.231791
0.231704
0.231615
0.231523
0.231429
0.231333
0.231233
0.231131
0.231026
0.230918
0.230807
0.230693
0.230576
0.230455
0.230331
0.230204
0.230073
0.229939
0.229802
0.229662
0.229518
0.229371
0.22922
0.229066
0.228909
0.228749
0.228585
0.228418
0.228248
0.228076
0.2279
0.227721
0.22754
0.227356
0.227169
0.22698
0.226788
0.226593
0.226396
0.226197
0.225996
0.225793
0.225587
0.225379
0.22517
0.224958
0.224745
0.22453
0.224314
0.224095
0.223876
0.223654
0.223432
0.223208
0.222983
0.222756
0.222529
0.2223
0.222071
0.22184
0.221608
0.221375
0.221142
0.220908
0.220672
0.220436
0.2202
0.219962
0.219724
0.219485
0.219246
0.219006
0.218765
0.218523
0.218281
0.218038
0.217795
0.217551
0.217306
0.217061
0.216815
0.216568
0.216321
0.216073
0.215824
0.215575
0.215326
0.215076
0.214826
0.214577
0.214326
0.214086
0.213199
0.212945
0.212729
0.212539
0.212357
0.212172
0.211973
0.211759
0.211528
0.211284
0.21103
0.21077
0.210507
0.210244
0.209983
0.209725
0.209473
0.209227
0.208987
0.208755
0.208531
0.208314
0.208105
0.207904
0.20771
0.207524
0.207346
0.207174
0.20701
0.206852
0.2067
0.206554
0.206414
0.20628
0.206151
0.206026
0.205906
0.205791
0.205679
0.205571
0.205466
0.205364
0.205264
0.205167
0.205072
0.204979
0.204887
0.204796
0.204706
0.204617
0.204528
0.204439
0.20435
0.20426
0.20417
0.204079
0.203988
0.203894
0.2038
0.203704
0.203606
0.203506
0.203404
0.2033
0.203193
0.203085
0.202973
0.202859
0.202743
0.202623
0.202501
0.202376
0.202249
0.202118
0.201984
0.201848
0.201709
0.201567
0.201422
0.201274
0.201123
0.200969
0.200812
0.200653
0.20049
0.200325
0.200158
0.199987
0.199814
0.199639
0.199461
0.199281
0.199099
0.198914
0.198727
0.198538
0.198347
0.198154
0.197959
0.197763
0.197564
0.197364
0.197162
0.196959
0.196754
0.196547
0.19634
0.196131
0.19592
0.195709
0.195496
0.195283
0.195068
0.194852
0.194636
0.194418
0.1942
0.193981
0.193761
0.193541
0.19332
0.193098
0.192876
0.192653
0.19243
0.192206
0.191982
0.191757
0.191532
0.191306
0.19108
0.190853
0.190626
0.190399
0.190171
0.189943
0.189714
0.189485
0.189255
0.189025
0.188795
0.188564
0.188333
0.188101
0.18787
0.187638
0.187406
0.187174
0.186942
0.18672
0.188187
0.187979
0.187798
0.187643
0.187503
0.187368
0.187232
0.187089
0.186936
0.186772
0.186599
0.186417
0.18623
0.186037
0.185843
0.185647
0.185451
0.185257
0.185065
0.184875
0.184689
0.184507
0.18433
0.184156
0.183987
0.183823
0.183664
0.183509
0.183359
0.183213
0.183072
0.182935
0.182802
0.182673
0.182548
0.182426
0.182308
0.182193
0.182081
0.181972
0.181865
0.18176
0.181658
0.181557
0.181457
0.18136
0.181263
0.181166
0.181071
0.180976
0.180881
0.180786
0.180691
0.180595
0.180499
0.180402
0.180304
0.180205
0.180104
0.180003
0.179899
0.179794
0.179687
0.179578
0.179467
0.179354
0.179238
0.17912
0.179
0.178878
0.178753
0.178626
0.178496
0.178363
0.178228
0.17809
0.17795
0.177807
0.177662
0.177514
0.177364
0.17721
0.177055
0.176897
0.176736
0.176573
0.176408
0.176241
0.176071
0.175899
0.175725
0.175549
0.17537
0.17519
0.175008
0.174824
0.174639
0.174451
0.174262
0.174071
0.173879
0.173685
0.17349
0.173294
0.173096
0.172897
0.172697
0.172496
0.172294
0.172091
0.171886
0.171681
0.171476
0.171269
0.171062
0.170854
0.170645
0.170436
0.170226
0.170016
0.169805
0.169594
0.169382
0.16917
0.168958
0.168745
0.168532
0.168318
0.168105
0.167891
0.167677
0.167462
0.167248
0.167033
0.166818
0.166602
0.166387
0.166171
0.165954
0.165738
0.165521
0.165304
0.165087
0.16487
0.164652
0.164435
0.164217
0.164
0.163783
0.163575
0.166679
0.16651
0.166359
0.166229
0.166115
0.166011
0.165912
0.165813
0.16571
0.165602
0.165488
0.165367
0.165239
0.165107
0.16497
0.164829
0.164686
0.164541
0.164396
0.16425
0.164105
0.16396
0.163817
0.163676
0.163536
0.163399
0.163264
0.163132
0.163002
0.162874
0.162749
0.162627
0.162507
0.16239
0.162275
0.162163
0.162052
0.161944
0.161837
0.161733
0.161629
0.161528
0.161427
0.161328
0.161229
0.161131
0.161034
0.160937
0.160841
0.160744
0.160647
0.16055
0.160453
0.160355
0.160256
0.160156
0.160056
0.159954
0.159851
0.159746
0.15964
0.159532
0.159423
0.159311
0.159198
0.159083
0.158965
0.158846
0.158725
0.158601
0.158475
0.158347
0.158216
0.158083
0.157948
0.157811
0.157671
0.157528
0.157384
0.157237
0.157088
0.156937
0.156783
0.156627
0.156469
0.156309
0.156147
0.155983
0.155816
0.155648
0.155478
0.155306
0.155132
0.154957
0.154779
0.1546
0.15442
0.154238
0.154055
0.15387
0.153683
0.153496
0.153307
0.153117
0.152926
0.152734
0.152541
0.152347
0.152152
0.151957
0.15176
0.151563
0.151365
0.151166
0.150967
0.150768
0.150567
0.150367
0.150166
0.149964
0.149762
0.14956
0.149358
0.149155
0.148952
0.148749
0.148545
0.148342
0.148138
0.147934
0.14773
0.147526
0.147322
0.147117
0.146913
0.146708
0.146503
0.146298
0.146093
0.145888
0.145682
0.145477
0.145271
0.145066
0.14486
0.144655
0.144449
0.144245
0.14404
0.143844
0.148066
0.147929
0.147804
0.147695
0.147599
0.147513
0.147436
0.147363
0.147291
0.147218
0.147142
0.147063
0.14698
0.146892
0.1468
0.146705
0.146606
0.146504
0.1464
0.146294
0.146187
0.146079
0.14597
0.145861
0.145752
0.145644
0.145536
0.145428
0.145321
0.145216
0.145111
0.145007
0.144905
0.144803
0.144703
0.144603
0.144505
0.144407
0.14431
0.144214
0.144119
0.144024
0.14393
0.143836
0.143742
0.143649
0.143555
0.143461
0.143367
0.143273
0.143178
0.143082
0.142986
0.142889
0.142791
0.142691
0.142591
0.142489
0.142386
0.142281
0.142175
0.142067
0.141957
0.141846
0.141733
0.141618
0.141501
0.141382
0.141261
0.141137
0.141012
0.140885
0.140755
0.140624
0.14049
0.140354
0.140215
0.140075
0.139933
0.139788
0.139641
0.139493
0.139342
0.139189
0.139035
0.138878
0.13872
0.138559
0.138397
0.138233
0.138068
0.1379
0.137731
0.137561
0.137389
0.137215
0.13704
0.136864
0.136686
0.136507
0.136327
0.136146
0.135964
0.13578
0.135596
0.13541
0.135224
0.135037
0.134849
0.134661
0.134472
0.134282
0.134091
0.1339
0.133709
0.133517
0.133325
0.133132
0.132939
0.132745
0.132552
0.132358
0.132164
0.131969
0.131775
0.13158
0.131385
0.13119
0.130996
0.130801
0.130605
0.13041
0.130215
0.13002
0.129825
0.129629
0.129434
0.129238
0.129043
0.128847
0.128652
0.128456
0.128261
0.128065
0.12787
0.127675
0.12748
0.127285
0.127092
0.126906
0.131869
0.131758
0.131655
0.131563
0.131481
0.131409
0.131345
0.131287
0.131232
0.13118
0.131128
0.131075
0.131021
0.130964
0.130905
0.130842
0.130778
0.13071
0.13064
0.130567
0.130493
0.130416
0.130339
0.130259
0.130179
0.130098
0.130016
0.129933
0.12985
0.129767
0.129684
0.1296
0.129516
0.129432
0.129348
0.129264
0.12918
0.129096
0.129012
0.128927
0.128843
0.128758
0.128673
0.128587
0.128501
0.128415
0.128328
0.12824
0.128151
0.128062
0.127971
0.12788
0.127787
0.127694
0.127599
0.127502
0.127404
0.127305
0.127204
0.127102
0.126998
0.126892
0.126785
0.126675
0.126564
0.126451
0.126336
0.126219
0.1261
0.125979
0.125856
0.125731
0.125604
0.125475
0.125344
0.12521
0.125075
0.124938
0.124799
0.124658
0.124514
0.12437
0.124223
0.124074
0.123924
0.123771
0.123617
0.123462
0.123304
0.123145
0.122985
0.122823
0.122659
0.122494
0.122328
0.12216
0.121991
0.121821
0.121649
0.121477
0.121303
0.121128
0.120953
0.120776
0.120598
0.12042
0.120241
0.120061
0.11988
0.119699
0.119517
0.119334
0.119151
0.118968
0.118784
0.118599
0.118415
0.11823
0.118044
0.117859
0.117673
0.117487
0.117301
0.117114
0.116928
0.116741
0.116555
0.116368
0.116181
0.115994
0.115808
0.115621
0.115434
0.115247
0.11506
0.114874
0.114687
0.1145
0.114313
0.114127
0.11394
0.113753
0.113567
0.113381
0.113194
0.113008
0.112822
0.112637
0.112453
0.112277
0.117705
0.117616
0.117532
0.117455
0.117386
0.117324
0.117269
0.117219
0.117175
0.117134
0.117095
0.117058
0.117021
0.116984
0.116945
0.116906
0.116864
0.116821
0.116776
0.116729
0.11668
0.11663
0.116577
0.116523
0.116467
0.11641
0.116351
0.116291
0.11623
0.116168
0.116104
0.11604
0.115975
0.115909
0.115842
0.115774
0.115705
0.115635
0.115565
0.115493
0.115421
0.115347
0.115273
0.115197
0.115121
0.115043
0.114964
0.114884
0.114803
0.114721
0.114637
0.114551
0.114464
0.114376
0.114286
0.114195
0.114101
0.114007
0.11391
0.113812
0.113712
0.11361
0.113506
0.1134
0.113292
0.113183
0.113072
0.112958
0.112843
0.112725
0.112606
0.112485
0.112362
0.112236
0.112109
0.11198
0.111848
0.111715
0.11158
0.111444
0.111305
0.111165
0.111023
0.110879
0.110734
0.110587
0.110438
0.110288
0.110136
0.109983
0.109829
0.109672
0.109515
0.109356
0.109196
0.109035
0.108872
0.108708
0.108543
0.108378
0.108211
0.108043
0.107874
0.107704
0.107534
0.107363
0.107191
0.107018
0.106845
0.106671
0.106497
0.106322
0.106146
0.10597
0.105794
0.105617
0.10544
0.105263
0.105085
0.104908
0.10473
0.104551
0.104373
0.104195
0.104016
0.103837
0.103659
0.10348
0.103301
0.103123
0.102944
0.102765
0.102586
0.102408
0.102229
0.102051
0.101872
0.101693
0.101515
0.101337
0.101158
0.10098
0.100802
0.100624
0.100446
0.100269
0.100091
0.0999148
0.099739
0.0995721
0.105269
0.105197
0.105128
0.105064
0.105006
0.104953
0.104905
0.104862
0.104824
0.10479
0.104758
0.104729
0.104702
0.104676
0.10465
0.104624
0.104597
0.10457
0.104542
0.104513
0.104482
0.10445
0.104416
0.104381
0.104345
0.104307
0.104267
0.104226
0.104183
0.104139
0.104093
0.104046
0.103997
0.103947
0.103896
0.103843
0.103788
0.103732
0.103675
0.103616
0.103556
0.103494
0.103431
0.103366
0.103299
0.103231
0.103162
0.10309
0.103017
0.102942
0.102866
0.102788
0.102708
0.102626
0.102542
0.102457
0.10237
0.10228
0.102189
0.102096
0.102001
0.101904
0.101805
0.101705
0.101602
0.101497
0.10139
0.101282
0.101171
0.101059
0.100944
0.100827
0.100709
0.100588
0.100466
0.100342
0.100216
0.100088
0.0999581
0.0998268
0.0996938
0.0995592
0.0994229
0.0992849
0.0991454
0.0990044
0.0988618
0.0987178
0.0985723
0.0984255
0.0982772
0.0981277
0.0979768
0.0978248
0.0976715
0.0975171
0.0973615
0.0972049
0.0970473
0.0968887
0.0967291
0.0965687
0.0964074
0.0962452
0.0960824
0.0959187
0.0957544
0.0955895
0.0954239
0.0952578
0.0950912
0.094924
0.0947565
0.0945885
0.0944201
0.0942514
0.0940823
0.093913
0.0937435
0.0935737
0.0934037
0.0932336
0.0930633
0.0928929
0.0927224
0.0925519
0.0923813
0.0922106
0.09204
0.0918693
0.0916986
0.091528
0.0913573
0.0911867
0.0910162
0.0908457
0.0906752
0.0905048
0.0903345
0.0901642
0.089994
0.089824
0.089654
0.0894842
0.0893147
0.0891454
0.0889764
0.0888079
0.0886404
0.088482
0.094308
0.09425
0.094194
0.0941413
0.0940923
0.0940471
0.094006
0.0939688
0.0939352
0.0939051
0.093878
0.0938536
0.0938313
0.0938107
0.0937914
0.093773
0.093755
0.0937372
0.0937193
0.0937009
0.093682
0.0936622
0.0936415
0.0936196
0.0935966
0.0935722
0.0935465
0.0935193
0.0934907
0.0934604
0.0934286
0.0933952
0.09336
0.0933232
0.0932847
0.0932444
0.0932023
0.0931585
0.0931128
0.0930653
0.0930159
0.0929646
0.0929115
0.0928564
0.0927994
0.0927405
0.0926796
0.0926168
0.0925519
0.0924851
0.0924163
0.0923454
0.0922726
0.0921977
0.0921208
0.0920418
0.0919608
0.0918778
0.0917927
0.0917056
0.0916164
0.0915253
0.091432
0.0913368
0.0912396
0.0911404
0.0910391
0.0909359
0.0908307
0.0907235
0.0906144
0.0905032
0.0903901
0.0902752
0.0901586
0.0900401
0.08992
0.0897981
0.0896746
0.0895494
0.0894226
0.0892942
0.0891642
0.0890328
0.0888998
0.0887654
0.0886295
0.0884923
0.0883537
0.0882138
0.0880727
0.0879303
0.0877867
0.0876419
0.0874961
0.0873491
0.0872011
0.0870521
0.0869022
0.0867513
0.0865995
0.086447
0.0862936
0.0861394
0.0859845
0.085829
0.0856728
0.085516
0.0853586
0.0852007
0.0850422
0.0848834
0.084724
0.0845643
0.0844043
0.0842438
0.0840831
0.0839221
0.0837609
0.0835995
0.0834378
0.083276
0.0831141
0.082952
0.0827899
0.0826276
0.0824653
0.082303
0.0821406
0.0819782
0.0818158
0.0816534
0.081491
0.0813287
0.0811664
0.0810041
0.0808419
0.0806797
0.0805176
0.0803555
0.0801935
0.0800316
0.0798699
0.0797083
0.0795469
0.0793857
0.0792249
0.0790645
0.0789052
0.0787552
0.0846167
0.0845698
0.0845242
0.0844809
0.0844401
0.0844021
0.0843669
0.0843346
0.0843052
0.0842785
0.0842545
0.0842328
0.0842133
0.0841957
0.0841796
0.0841649
0.0841512
0.0841382
0.0841256
0.0841132
0.0841008
0.0840881
0.084075
0.0840612
0.0840466
0.0840311
0.0840145
0.0839966
0.0839775
0.0839569
0.0839348
0.0839111
0.0838858
0.0838587
0.0838298
0.0837991
0.0837665