/*--------------------------------*- C++ -*----------------------------------*\
| =========                 |                                                 |
| \\      /  F ield         | OpenFOAM: The Open Source CFD Toolbox           |
|  \\    /   O peration     | Version:  5.x                                   |
|   \\  /    A nd           | Web:      www.OpenFOAM.org                      |
|    \\/     M anipulation  |                                                 |
\*---------------------------------------------------------------------------*/
FoamFile
{
    version     2.0;
    format      ascii;
    class       volScalarField;
    location    "0";
    object      k;
}
// * * * * * * * * * * * * * * * * * * * * * * * * * * * * * * * * * * * * * //

dimensions      [0 2 -2 0 0 0 0];

internalField   nonuniform List<scalar> 
21600
(
1.35921
1.34405
1.33575
1.33292
1.33209
1.33199
1.33223
1.33267
1.33323
1.33384
1.33449
1.33516
1.33582
1.33648
1.33713
1.33777
1.3384
1.339
1.33959
1.34017
1.34073
1.34127
1.3418
1.34231
1.34281
1.34329
1.34376
1.34422
1.34466
1.34509
1.34551
1.34592
1.34631
1.3467
1.34707
1.34744
1.34779
1.34814
1.34847
1.3488
1.34911
1.34942
1.34971
1.34999
1.35027
1.35053
1.35079
1.35103
1.35126
1.35148
1.35169
1.35189
1.35207
1.35225
1.35241
1.35255
1.35269
1.35281
1.35292
1.35301
1.35309
1.35315
1.3532
1.35323
1.35325
1.35325
1.35324
1.35321
1.35316
1.35309
1.35301
1.35292
1.3528
1.35267
1.35252
1.35236
1.35217
1.35198
1.35176
1.35153
1.35128
1.35101
1.35072
1.35042
1.35011
1.34978
1.34943
1.34906
1.34868
1.34829
1.34787
1.34745
1.347
1.34655
1.34608
1.34559
1.34509
1.34458
1.34405
1.34351
1.34295
1.34239
1.34181
1.34122
1.34061
1.34
1.33937
1.33873
1.33808
1.33742
1.33675
1.33608
1.33539
1.33469
1.33398
1.33327
1.33255
1.33182
1.33108
1.33034
1.32959
1.32884
1.32807
1.32731
1.32654
1.32577
1.32499
1.32421
1.32343
1.32265
1.32187
1.32109
1.32031
1.31953
1.31876
1.31798
1.31721
1.31645
1.31569
1.31494
1.3142
1.31345
1.31273
1.31199
1.3113
1.31055
1.30993
1.3091
1.30865
1.30758
1.42588
1.4302
1.43033
1.42983
1.42953
1.42954
1.42979
1.43019
1.43067
1.43122
1.43181
1.43242
1.43304
1.43367
1.4343
1.43492
1.43553
1.43613
1.43672
1.4373
1.43787
1.43842
1.43895
1.43948
1.43999
1.44049
1.44098
1.44145
1.44191
1.44236
1.4428
1.44323
1.44364
1.44405
1.44444
1.44483
1.4452
1.44557
1.44592
1.44626
1.44659
1.44692
1.44723
1.44753
1.44782
1.4481
1.44836
1.44862
1.44886
1.44909
1.44931
1.44952
1.44971
1.44989
1.45006
1.45021
1.45035
1.45047
1.45058
1.45067
1.45075
1.45081
1.45085
1.45088
1.45089
1.45088
1.45086
1.45082
1.45075
1.45068
1.45058
1.45046
1.45033
1.45018
1.45001
1.44982
1.44962
1.44939
1.44915
1.44889
1.44861
1.44832
1.448
1.44767
1.44732
1.44695
1.44657
1.44617
1.44575
1.44532
1.44487
1.4444
1.44392
1.44342
1.4429
1.44237
1.44183
1.44127
1.44069
1.4401
1.4395
1.43888
1.43825
1.43761
1.43695
1.43629
1.4356
1.43491
1.43421
1.43349
1.43276
1.43203
1.43128
1.43052
1.42975
1.42898
1.42819
1.4274
1.4266
1.42579
1.42497
1.42415
1.42332
1.42248
1.42164
1.42079
1.41994
1.41908
1.41823
1.41736
1.4165
1.41563
1.41477
1.4139
1.41303
1.41216
1.4113
1.41043
1.40958
1.40872
1.40787
1.40702
1.40618
1.40534
1.40452
1.40368
1.4029
1.40203
1.40131
1.40036
1.38939
1.38996
1.38885
1.3879
1.3873
1.38703
1.38699
1.38708
1.38729
1.38756
1.3879
1.38827
1.38868
1.3891
1.38954
1.38999
1.39044
1.39089
1.39134
1.39178
1.39222
1.39266
1.39309
1.39352
1.39393
1.39434
1.39474
1.39514
1.39553
1.39591
1.39628
1.39664
1.397
1.39735
1.39769
1.39802
1.39834
1.39866
1.39896
1.39926
1.39955
1.39983
1.4001
1.40036
1.40062
1.40086
1.40109
1.40131
1.40152
1.40171
1.4019
1.40207
1.40223
1.40237
1.40251
1.40263
1.40273
1.40282
1.4029
1.40296
1.403
1.40303
1.40304
1.40304
1.40302
1.40298
1.40292
1.40285
1.40276
1.40265
1.40252
1.40238
1.40221
1.40203
1.40184
1.40162
1.40138
1.40113
1.40086
1.40057
1.40027
1.39995
1.39961
1.39925
1.39888
1.39849
1.39808
1.39766
1.39722
1.39676
1.39629
1.3958
1.3953
1.39478
1.39425
1.3937
1.39314
1.39256
1.39197
1.39137
1.39075
1.39012
1.38948
1.38882
1.38815
1.38747
1.38678
1.38608
1.38536
1.38464
1.38391
1.38316
1.38241
1.38164
1.38087
1.38009
1.37929
1.3785
1.37769
1.37687
1.37605
1.37522
1.37439
1.37355
1.3727
1.37185
1.37099
1.37013
1.36927
1.3684
1.36752
1.36665
1.36577
1.36489
1.36401
1.36313
1.36225
1.36137
1.36049
1.35961
1.35873
1.35786
1.35699
1.35612
1.35526
1.3544
1.35355
1.3527
1.35187
1.35098
1.37728
1.37538
1.37287
1.3711
1.36994
1.36919
1.36874
1.36849
1.36838
1.36838
1.36845
1.36859
1.36877
1.36899
1.36923
1.3695
1.36979
1.37008
1.37039
1.3707
1.37101
1.37133
1.37165
1.37197
1.37229
1.37261
1.37292
1.37323
1.37354
1.37385
1.37415
1.37445
1.37474
1.37503
1.37531
1.37559
1.37586
1.37612
1.37638
1.37663
1.37687
1.37711
1.37734
1.37756
1.37777
1.37797
1.37816
1.37834
1.37851
1.37867
1.37882
1.37895
1.37908
1.37919
1.37928
1.37936
1.37943
1.37949
1.37952
1.37955
1.37956
1.37955
1.37952
1.37948
1.37942
1.37935
1.37925
1.37914
1.37902
1.37887
1.3787
1.37852
1.37832
1.3781
1.37786
1.37761
1.37733
1.37704
1.37673
1.37641
1.37606
1.3757
1.37532
1.37493
1.37452
1.37409
1.37365
1.37319
1.37271
1.37222
1.37171
1.37119
1.37065
1.3701
1.36953
1.36895
1.36835
1.36774
1.36712
1.36648
1.36583
1.36517
1.3645
1.36381
1.36311
1.3624
1.36168
1.36095
1.36021
1.35946
1.3587
1.35793
1.35714
1.35635
1.35556
1.35475
1.35393
1.35311
1.35228
1.35144
1.3506
1.34974
1.34889
1.34802
1.34715
1.34628
1.3454
1.34451
1.34362
1.34273
1.34183
1.34093
1.34003
1.33912
1.33822
1.33731
1.3364
1.33549
1.33457
1.33366
1.33275
1.33184
1.33094
1.33003
1.32913
1.32823
1.32733
1.32645
1.32555
1.32465
1.37344
1.37095
1.36788
1.36544
1.36368
1.36243
1.36156
1.36094
1.36051
1.36022
1.36003
1.35992
1.35988
1.35989
1.35995
1.36004
1.36015
1.36029
1.36045
1.36062
1.36081
1.361
1.3612
1.36141
1.36163
1.36185
1.36207
1.36229
1.36252
1.36274
1.36297
1.36319
1.36342
1.36364
1.36386
1.36407
1.36429
1.36449
1.3647
1.3649
1.36509
1.36528
1.36546
1.36563
1.3658
1.36595
1.3661
1.36624
1.36637
1.36648
1.36659
1.36668
1.36676
1.36683
1.36689
1.36693
1.36696
1.36697
1.36697
1.36695
1.36691
1.36686
1.3668
1.36671
1.36661
1.36649
1.36636
1.3662
1.36603
1.36584
1.36563
1.3654
1.36515
1.36489
1.3646
1.3643
1.36398
1.36364
1.36329
1.36291
1.36252
1.36212
1.36169
1.36125
1.36079
1.36032
1.35982
1.35932
1.35879
1.35825
1.3577
1.35713
1.35654
1.35595
1.35533
1.35471
1.35406
1.35341
1.35274
1.35206
1.35137
1.35066
1.34995
1.34922
1.34848
1.34773
1.34696
1.34619
1.34541
1.34462
1.34382
1.343
1.34218
1.34136
1.34052
1.33967
1.33882
1.33796
1.33709
1.33622
1.33534
1.33445
1.33356
1.33266
1.33175
1.33084
1.32993
1.32901
1.32809
1.32716
1.32623
1.32529
1.32435
1.32341
1.32247
1.32152
1.32058
1.31963
1.31868
1.31773
1.31678
1.31583
1.31487
1.31393
1.31298
1.31204
1.31109
1.31016
1.30921
1.30828
1.37213
1.37029
1.36746
1.36481
1.36269
1.36106
1.35983
1.35889
1.35817
1.35761
1.35718
1.35685
1.3566
1.35641
1.35628
1.3562
1.35615
1.35614
1.35615
1.35618
1.35624
1.35631
1.3564
1.35649
1.3566
1.35672
1.35685
1.35698
1.35712
1.35726
1.35741
1.35755
1.3577
1.35785
1.35801
1.35816
1.35831
1.35845
1.3586
1.35874
1.35888
1.35901
1.35914
1.35926
1.35938
1.35949
1.35959
1.35968
1.35976
1.35983
1.35989
1.35994
1.35997
1.36
1.36001
1.36
1.35998
1.35995
1.3599
1.35984
1.35976
1.35966
1.35954
1.35941
1.35926
1.3591
1.35891
1.35871
1.35848
1.35824
1.35798
1.3577
1.35741
1.35709
1.35675
1.3564
1.35602
1.35563
1.35522
1.3548
1.35435
1.35389
1.35341
1.35291
1.3524
1.35187
1.35132
1.35076
1.35018
1.34958
1.34898
1.34835
1.34771
1.34706
1.34639
1.34571
1.34501
1.3443
1.34358
1.34285
1.3421
1.34134
1.34057
1.33979
1.339
1.3382
1.33738
1.33656
1.33573
1.33488
1.33403
1.33317
1.3323
1.33143
1.33054
1.32965
1.32875
1.32784
1.32693
1.32601
1.32508
1.32415
1.32321
1.32227
1.32132
1.32036
1.31941
1.31844
1.31748
1.31651
1.31553
1.31455
1.31357
1.31259
1.3116
1.31061
1.30962
1.30863
1.30763
1.30664
1.30564
1.30465
1.30365
1.30265
1.30165
1.30067
1.29967
1.29869
1.29769
1.29672
1.37148
1.3707
1.3686
1.36623
1.36409
1.36231
1.36086
1.3597
1.35875
1.35799
1.35735
1.35683
1.3564
1.35605
1.35576
1.35552
1.35532
1.35517
1.35504
1.35495
1.35488
1.35484
1.35481
1.3548
1.35481
1.35483
1.35486
1.3549
1.35495
1.35501
1.35507
1.35514
1.35522
1.3553
1.35538
1.35546
1.35555
1.35563
1.35571
1.3558
1.35588
1.35595
1.35603
1.35609
1.35616
1.35621
1.35626
1.3563
1.35633
1.35635
1.35636
1.35636
1.35635
1.35632
1.35628
1.35623
1.35616
1.35608
1.35598
1.35586
1.35573
1.35558
1.35542
1.35523
1.35503
1.35481
1.35457
1.35431
1.35404
1.35374
1.35342
1.35309
1.35273
1.35236
1.35197
1.35155
1.35112
1.35067
1.3502
1.34971
1.34921
1.34868
1.34814
1.34759
1.34701
1.34642
1.34581
1.34518
1.34454
1.34389
1.34321
1.34253
1.34183
1.34111
1.34038
1.33963
1.33888
1.33811
1.33732
1.33653
1.33572
1.3349
1.33407
1.33323
1.33237
1.33151
1.33064
1.32976
1.32886
1.32796
1.32705
1.32613
1.32521
1.32427
1.32333
1.32238
1.32143
1.32047
1.3195
1.31852
1.31754
1.31656
1.31557
1.31457
1.31357
1.31256
1.31155
1.31054
1.30952
1.3085
1.30747
1.30645
1.30541
1.30438
1.30334
1.30231
1.30126
1.30022
1.29918
1.29813
1.29708
1.29604
1.29499
1.29394
1.29289
1.29185
1.2908
1.28976
1.28871
1.28769
1.37098
1.3711
1.36993
1.36817
1.36633
1.36464
1.36317
1.36192
1.36086
1.35996
1.35919
1.35853
1.35797
1.35748
1.35706
1.35669
1.35637
1.3561
1.35586
1.35565
1.35548
1.35532
1.3552
1.35509
1.355
1.35493
1.35487
1.35482
1.35479
1.35477
1.35476
1.35475
1.35475
1.35476
1.35477
1.35479
1.35481
1.35483
1.35485
1.35487
1.35489
1.35491
1.35493
1.35494
1.35495
1.35495
1.35494
1.35493
1.35491
1.35487
1.35483
1.35478
1.35471
1.35463
1.35454
1.35444
1.35432
1.35418
1.35403
1.35386
1.35367
1.35347
1.35325
1.35301
1.35275
1.35247
1.35217
1.35186
1.35152
1.35116
1.35079
1.35039
1.34998
1.34954
1.34909
1.34861
1.34811
1.3476
1.34707
1.34651
1.34594
1.34535
1.34474
1.34412
1.34348
1.34282
1.34214
1.34145
1.34074
1.34001
1.33927
1.33852
1.33775
1.33696
1.33616
1.33535
1.33452
1.33368
1.33283
1.33197
1.33109
1.3302
1.3293
1.32839
1.32747
1.32654
1.3256
1.32465
1.32369
1.32273
1.32175
1.32077
1.31978
1.31878
1.31777
1.31676
1.31574
1.31472
1.31368
1.31265
1.31161
1.31056
1.30951
1.30845
1.30739
1.30632
1.30525
1.30418
1.30311
1.30203
1.30094
1.29986
1.29877
1.29768
1.29659
1.29549
1.29439
1.2933
1.2922
1.29109
1.28999
1.28889
1.28778
1.28668
1.28558
1.28448
1.28337
1.28227
1.28117
1.2801
1.37052
1.3712
1.37088
1.36986
1.36853
1.36715
1.36584
1.36465
1.3636
1.36266
1.36184
1.36112
1.36047
1.3599
1.35939
1.35894
1.35853
1.35817
1.35784
1.35754
1.35728
1.35704
1.35683
1.35664
1.35647
1.35631
1.35618
1.35605
1.35595
1.35585
1.35577
1.35569
1.35562
1.35556
1.35551
1.35546
1.35542
1.35538
1.35534
1.3553
1.35527
1.35523
1.35519
1.35514
1.35509
1.35504
1.35498
1.35491
1.35483
1.35475
1.35465
1.35454
1.35442
1.35429
1.35414
1.35398
1.3538
1.35361
1.3534
1.35318
1.35293
1.35267
1.35239
1.35209
1.35177
1.35144
1.35108
1.3507
1.3503
1.34988
1.34944
1.34898
1.3485
1.348
1.34748
1.34694
1.34637
1.34579
1.34519
1.34456
1.34392
1.34326
1.34259
1.34189
1.34117
1.34044
1.33969
1.33893
1.33814
1.33735
1.33653
1.3357
1.33485
1.33399
1.33312
1.33223
1.33133
1.33042
1.32949
1.32855
1.3276
1.32664
1.32566
1.32468
1.32368
1.32268
1.32166
1.32064
1.31961
1.31857
1.31752
1.31646
1.3154
1.31433
1.31325
1.31217
1.31108
1.30999
1.30889
1.30778
1.30667
1.30555
1.30443
1.30331
1.30218
1.30105
1.29992
1.29878
1.29764
1.29649
1.29534
1.2942
1.29304
1.29189
1.29073
1.28958
1.28842
1.28726
1.2861
1.28493
1.28377
1.28261
1.28144
1.28028
1.27911
1.27795
1.27678
1.27562
1.27446
1.27333
1.3701
1.37104
1.37133
1.37101
1.37027
1.36933
1.36833
1.36734
1.36641
1.36555
1.36476
1.36404
1.36338
1.36279
1.36224
1.36174
1.36129
1.36087
1.36048
1.36013
1.3598
1.3595
1.35923
1.35897
1.35874
1.35852
1.35832
1.35814
1.35796
1.35781
1.35766
1.35752
1.3574
1.35728
1.35717
1.35706
1.35696
1.35686
1.35677
1.35667
1.35658
1.35649
1.35639
1.35629
1.35619
1.35608
1.35596
1.35584
1.35571
1.35557
1.35542
1.35526
1.35508
1.35489
1.35469
1.35447
1.35424
1.35399
1.35372
1.35344
1.35313
1.35281
1.35247
1.35211
1.35173
1.35133
1.35091
1.35046
1.35
1.34952
1.34901
1.34848
1.34793
1.34736
1.34677
1.34616
1.34552
1.34487
1.34419
1.3435
1.34278
1.34205
1.34129
1.34052
1.33973
1.33892
1.3381
1.33725
1.33639
1.33551
1.33462
1.33371
1.33279
1.33185
1.33089
1.32992
1.32894
1.32795
1.32694
1.32592
1.32489
1.32384
1.32279
1.32173
1.32065
1.31957
1.31847
1.31737
1.31626
1.31514
1.31401
1.31288
1.31174
1.31059
1.30943
1.30827
1.30711
1.30593
1.30476
1.30357
1.30239
1.3012
1.3
1.29881
1.2976
1.2964
1.29519
1.29398
1.29277
1.29155
1.29034
1.28912
1.28789
1.28667
1.28545
1.28422
1.28299
1.28177
1.28054
1.27931
1.27808
1.27685
1.27561
1.27438
1.27315
1.27192
1.27069
1.26947
1.26824
1.26705
1.36974
1.37071
1.37137
1.37158
1.3714
1.37094
1.37032
1.36963
1.36892
1.36822
1.36755
1.36691
1.36631
1.36575
1.36522
1.36473
1.36427
1.36383
1.36343
1.36305
1.3627
1.36236
1.36205
1.36175
1.36148
1.36122
1.36097
1.36074
1.36053
1.36032
1.36013
1.35994
1.35977
1.3596
1.35944
1.35928
1.35913
1.35899
1.35884
1.3587
1.35855
1.35841
1.35826
1.35811
1.35796
1.3578
1.35763
1.35746
1.35727
1.35708
1.35687
1.35666
1.35643
1.35618
1.35592
1.35565
1.35536
1.35505
1.35472
1.35438
1.35402
1.35363
1.35323
1.3528
1.35236
1.35189
1.35141
1.3509
1.35036
1.34981
1.34924
1.34864
1.34802
1.34737
1.34671
1.34602
1.34532
1.34459
1.34384
1.34306
1.34227
1.34146
1.34063
1.33978
1.33891
1.33802
1.33711
1.33618
1.33524
1.33428
1.3333
1.33231
1.3313
1.33028
1.32924
1.32819
1.32712
1.32604
1.32495
1.32385
1.32273
1.3216
1.32046
1.31931
1.31815
1.31698
1.3158
1.31461
1.31342
1.31221
1.311
1.30978
1.30856
1.30733
1.30609
1.30484
1.30359
1.30234
1.30108
1.29982
1.29855
1.29728
1.296
1.29472
1.29344
1.29216
1.29087
1.28958
1.28829
1.287
1.28571
1.28441
1.28311
1.28181
1.28051
1.27921
1.27791
1.27661
1.27531
1.274
1.2727
1.2714
1.2701
1.26879
1.26749
1.26619
1.26489
1.2636
1.2623
1.26105
1.36946
1.37033
1.37113
1.37169
1.37193
1.37192
1.3717
1.37134
1.37091
1.37044
1.36995
1.36946
1.36898
1.3685
1.36805
1.36761
1.36719
1.36679
1.3664
1.36604
1.36568
1.36535
1.36503
1.36472
1.36443
1.36415
1.36388
1.36363
1.36338
1.36315
1.36292
1.36271
1.3625
1.36229
1.3621
1.3619
1.36171
1.36153
1.36134
1.36116
1.36097
1.36078
1.36059
1.3604
1.36019
1.35999
1.35977
1.35955
1.35932
1.35907
1.35882
1.35855
1.35826
1.35796
1.35765
1.35732
1.35697
1.35661
1.35622
1.35581
1.35539
1.35494
1.35448
1.35399
1.35348
1.35295
1.35239
1.35181
1.35121
1.35059
1.34994
1.34927
1.34858
1.34786
1.34712
1.34636
1.34558
1.34477
1.34394
1.34309
1.34222
1.34133
1.34041
1.33948
1.33853
1.33755
1.33656
1.33555
1.33453
1.33348
1.33242
1.33134
1.33024
1.32913
1.32801
1.32687
1.32571
1.32454
1.32336
1.32217
1.32096
1.31974
1.31852
1.31728
1.31603
1.31477
1.3135
1.31222
1.31094
1.30964
1.30834
1.30703
1.30572
1.3044
1.30307
1.30174
1.3004
1.29906
1.29771
1.29636
1.29501
1.29365
1.29229
1.29092
1.28956
1.28819
1.28682
1.28544
1.28407
1.28269
1.28132
1.27994
1.27856
1.27718
1.2758
1.27442
1.27304
1.27165
1.27027
1.26889
1.26751
1.26613
1.26475
1.26337
1.26199
1.26062
1.25924
1.25787
1.2565
1.25518
1.36924
1.36997
1.37076
1.37148
1.372
1.37233
1.37246
1.37243
1.3723
1.37209
1.37182
1.37152
1.3712
1.37086
1.37053
1.37019
1.36985
1.36951
1.36919
1.36887
1.36855
1.36825
1.36795
1.36766
1.36738
1.36711
1.36684
1.36658
1.36633
1.36609
1.36585
1.36562
1.36539
1.36517
1.36495
1.36473
1.36452
1.3643
1.36409
1.36387
1.36365
1.36343
1.3632
1.36297
1.36273
1.36248
1.36222
1.36196
1.36168
1.36139
1.36108
1.36076
1.36043
1.36008
1.35971
1.35933
1.35892
1.3585
1.35806
1.35759
1.35711
1.3566
1.35607
1.35551
1.35494
1.35434
1.35371
1.35307
1.3524
1.3517
1.35098
1.35024
1.34947
1.34868
1.34786
1.34703
1.34616
1.34528
1.34437
1.34344
1.34248
1.34151
1.34051
1.3395
1.33846
1.3374
1.33632
1.33523
1.33411
1.33298
1.33183
1.33066
1.32947
1.32827
1.32706
1.32582
1.32458
1.32332
1.32205
1.32076
1.31946
1.31815
1.31683
1.3155
1.31416
1.3128
1.31144
1.31007
1.30869
1.30731
1.30591
1.30451
1.3031
1.30169
1.30027
1.29884
1.29741
1.29598
1.29454
1.2931
1.29165
1.2902
1.28875
1.2873
1.28584
1.28438
1.28292
1.28146
1.28
1.27853
1.27707
1.2756
1.27413
1.27267
1.2712
1.26973
1.26827
1.2668
1.26534
1.26387
1.26241
1.26094
1.25948
1.25802
1.25656
1.25511
1.25365
1.2522
1.25075
1.24936
1.36908
1.36965
1.37036
1.3711
1.37176
1.3723
1.37269
1.37295
1.37309
1.37313
1.3731
1.37301
1.37287
1.37271
1.37252
1.37231
1.37208
1.37185
1.37162
1.37137
1.37113
1.37088
1.37064
1.37039
1.37015
1.36991
1.36967
1.36944
1.3692
1.36897
1.36874
1.36851
1.36829
1.36806
1.36784
1.36761
1.36738
1.36715
1.36692
1.36668
1.36644
1.36619
1.36594
1.36568
1.36541
1.36512
1.36483
1.36453
1.36421
1.36388
1.36353
1.36317
1.36279
1.36239
1.36197
1.36153
1.36107
1.3606
1.36009
1.35957
1.35903
1.35846
1.35786
1.35725
1.3566
1.35594
1.35525
1.35453
1.35379
1.35302
1.35223
1.35141
1.35057
1.3497
1.34881
1.34789
1.34695
1.34598
1.34499
1.34398
1.34295
1.34189
1.34081
1.3397
1.33858
1.33743
1.33627
1.33508
1.33388
1.33266
1.33141
1.33016
1.32888
1.32759
1.32628
1.32495
1.32361
1.32226
1.32089
1.31951
1.31812
1.31672
1.3153
1.31387
1.31243
1.31098
1.30953
1.30806
1.30659
1.3051
1.30361
1.30212
1.30061
1.2991
1.29759
1.29607
1.29454
1.29301
1.29148
1.28994
1.2884
1.28685
1.28531
1.28376
1.28221
1.28065
1.2791
1.27754
1.27599
1.27443
1.27287
1.27132
1.26976
1.2682
1.26664
1.26509
1.26353
1.26198
1.26042
1.25887
1.25732
1.25577
1.25422
1.25267
1.25113
1.24958
1.24804
1.24651
1.24498
1.24351
1.36895
1.3694
1.36999
1.37067
1.37136
1.372
1.37255
1.373
1.37335
1.37361
1.37379
1.37391
1.37396
1.37398
1.37395
1.37389
1.37381
1.3737
1.37358
1.37344
1.37329
1.37313
1.37296
1.37279
1.37261
1.37242
1.37223
1.37204
1.37184
1.37164
1.37144
1.37124
1.37103
1.37082
1.3706
1.37038
1.37016
1.36993
1.36969
1.36945
1.3692
1.36894
1.36867
1.36838
1.36809
1.36778
1.36746
1.36713
1.36678
1.36641
1.36602
1.36562
1.3652
1.36475
1.36429
1.3638
1.36329
1.36276
1.36221
1.36163
1.36102
1.36039
1.35974
1.35906
1.35835
1.35762
1.35686
1.35607
1.35526
1.35442
1.35356
1.35267
1.35175
1.3508
1.34983
1.34884
1.34781
1.34677
1.3457
1.3446
1.34348
1.34234
1.34117
1.33998
1.33877
1.33754
1.33628
1.33501
1.33372
1.3324
1.33107
1.32972
1.32835
1.32696
1.32556
1.32414
1.32271
1.32126
1.3198
1.31832
1.31683
1.31533
1.31382
1.31229
1.31076
1.30921
1.30766
1.30609
1.30452
1.30294
1.30135
1.29976
1.29815
1.29655
1.29493
1.29331
1.29169
1.29006
1.28843
1.28679
1.28515
1.28351
1.28187
1.28022
1.27857
1.27692
1.27527
1.27362
1.27197
1.27032
1.26866
1.26701
1.26536
1.26371
1.26205
1.2604
1.25875
1.25711
1.25546
1.25381
1.25217
1.25053
1.24889
1.24725
1.24562
1.24399
1.24236
1.24074
1.23912
1.23757
1.36886
1.3692
1.36967
1.37026
1.3709
1.37155
1.37216
1.37272
1.37322
1.37364
1.37399
1.37428
1.37451
1.37469
1.37482
1.37491
1.37497
1.375
1.37501
1.37499
1.37495
1.37489
1.37482
1.37473
1.37463
1.37452
1.3744
1.37427
1.37413
1.37399
1.37383
1.37367
1.37349
1.37331
1.37312
1.37293
1.37272
1.3725
1.37228
1.37204
1.37179
1.37152
1.37124
1.37095
1.37065
1.37032
1.36998
1.36962
1.36925
1.36885
1.36843
1.36799
1.36753
1.36705
1.36654
1.36601
1.36545
1.36487
1.36426
1.36363
1.36297
1.36228
1.36157
1.36082
1.36005
1.35925
1.35843
1.35757
1.35669
1.35578
1.35484
1.35387
1.35288
1.35186
1.35081
1.34974
1.34863
1.34751
1.34635
1.34518
1.34397
1.34274
1.34149
1.34021
1.33892
1.3376
1.33625
1.33489
1.3335
1.3321
1.33067
1.32923
1.32777
1.32629
1.32479
1.32328
1.32175
1.32021
1.31865
1.31708
1.31549
1.31389
1.31228
1.31066
1.30903
1.30738
1.30573
1.30407
1.3024
1.30072
1.29903
1.29733
1.29563
1.29392
1.29221
1.29049
1.28877
1.28704
1.28531
1.28358
1.28184
1.2801
1.27835
1.27661
1.27486
1.27311
1.27136
1.26961
1.26786
1.26611
1.26436
1.26261
1.26086
1.25911
1.25736
1.25561
1.25387
1.25212
1.25038
1.24864
1.2469
1.24517
1.24343
1.24171
1.23998
1.23825
1.23653
1.23482
1.23311
1.23149
1.3688
1.36904
1.36941
1.36989
1.37045
1.37105
1.37166
1.37225
1.37281
1.37333
1.3738
1.37421
1.37458
1.3749
1.37517
1.37541
1.3756
1.37576
1.37589
1.376
1.37607
1.37613
1.37616
1.37617
1.37616
1.37614
1.3761
1.37605
1.37598
1.3759
1.3758
1.37569
1.37557
1.37543
1.37529
1.37512
1.37494
1.37475
1.37455
1.37432
1.37408
1.37383
1.37355
1.37326
1.37295
1.37261
1.37226
1.37188
1.37149
1.37107
1.37062
1.37015
1.36966
1.36914
1.36859
1.36802
1.36742
1.36679
1.36613
1.36544
1.36473
1.36398
1.36321
1.3624
1.36157
1.36071
1.35982
1.35889
1.35794
1.35696
1.35595
1.35491
1.35384
1.35274
1.35161
1.35046
1.34928
1.34807
1.34683
1.34557
1.34428
1.34297
1.34163
1.34027
1.33888
1.33748
1.33604
1.33459
1.33311
1.33162
1.3301
1.32857
1.32701
1.32544
1.32385
1.32224
1.32062
1.31898
1.31733
1.31566
1.31398
1.31228
1.31057
1.30885
1.30712
1.30538
1.30363
1.30187
1.3001
1.29832
1.29654
1.29474
1.29294
1.29113
1.28932
1.2875
1.28568
1.28385
1.28202
1.28019
1.27835
1.27651
1.27467
1.27282
1.27097
1.26913
1.26728
1.26543
1.26358
1.26173
1.25988
1.25803
1.25618
1.25433
1.25249
1.25064
1.2488
1.24696
1.24512
1.24328
1.24144
1.23961
1.23778
1.23596
1.23414
1.23232
1.2305
1.2287
1.2269
1.22519
1.36874
1.36893
1.36921
1.36959
1.37006
1.37058
1.37113
1.3717
1.37227
1.37282
1.37335
1.37384
1.37429
1.37471
1.37509
1.37544
1.37575
1.37602
1.37627
1.37648
1.37667
1.37683
1.37697
1.37708
1.37717
1.37724
1.37729
1.37732
1.37733
1.37732
1.37729
1.37724
1.37718
1.3771
1.377
1.37688
1.37674
1.37658
1.3764
1.3762
1.37598
1.37574
1.37547
1.37518
1.37487
1.37454
1.37417
1.37379
1.37337
1.37293
1.37247
1.37197
1.37144
1.37089
1.37031
1.36969
1.36905
1.36837
1.36767
1.36693
1.36616
1.36536
1.36453
1.36366
1.36277
1.36184
1.36088
1.35989
1.35887
1.35782
1.35673
1.35562
1.35447
1.3533
1.3521
1.35086
1.3496
1.34831
1.34699
1.34565
1.34428
1.34288
1.34146
1.34001
1.33854
1.33704
1.33552
1.33398
1.33241
1.33082
1.32922
1.32759
1.32595
1.32428
1.3226
1.3209
1.31918
1.31745
1.3157
1.31394
1.31216
1.31037
1.30857
1.30675
1.30492
1.30309
1.30124
1.29938
1.29751
1.29564
1.29375
1.29186
1.28996
1.28806
1.28615
1.28423
1.28231
1.28038
1.27845
1.27652
1.27458
1.27264
1.2707
1.26876
1.26681
1.26486
1.26292
1.26097
1.25902
1.25707
1.25512
1.25317
1.25123
1.24928
1.24734
1.24539
1.24345
1.24151
1.23958
1.23764
1.23571
1.23378
1.23186
1.22993
1.22802
1.2261
1.22419
1.22229
1.2204
1.21861
1.3687
1.36885
1.36906
1.36936
1.36973
1.37016
1.37064
1.37116
1.37169
1.37222
1.37275
1.37327
1.37376
1.37424
1.37469
1.37511
1.3755
1.37586
1.3762
1.37651
1.37679
1.37704
1.37727
1.37748
1.37766
1.37781
1.37795
1.37806
1.37814
1.37821
1.37825
1.37827
1.37827
1.37824
1.37819
1.37812
1.37802
1.3779
1.37775
1.37758
1.37738
1.37715
1.3769
1.37662
1.37631
1.37598
1.37561
1.37521
1.37478
1.37433
1.37384
1.37331
1.37276
1.37217
1.37155
1.3709
1.37021
1.36949
1.36874
1.36795
1.36712
1.36627
1.36538
1.36445
1.36349
1.3625
1.36148
1.36042
1.35933
1.3582
1.35705
1.35586
1.35464
1.35339
1.3521
1.35079
1.34945
1.34808
1.34668
1.34525
1.3438
1.34232
1.34081
1.33927
1.33771
1.33613
1.33452
1.33289
1.33124
1.32956
1.32787
1.32615
1.32441
1.32266
1.32089
1.31909
1.31728
1.31546
1.31362
1.31176
1.30989
1.30801
1.30611
1.3042
1.30228
1.30035
1.29841
1.29645
1.29449
1.29252
1.29054
1.28855
1.28656
1.28456
1.28255
1.28054
1.27852
1.2765
1.27447
1.27244
1.27041
1.26837
1.26633
1.26429
1.26225
1.26021
1.25816
1.25612
1.25407
1.25203
1.24998
1.24794
1.24589
1.24385
1.24181
1.23977
1.23773
1.2357
1.23366
1.23163
1.2296
1.22758
1.22556
1.22354
1.22153
1.21952
1.21752
1.21552
1.21353
1.21167
1.36867
1.36878
1.36894
1.36917
1.36946
1.36981
1.37021
1.37065
1.37112
1.37161
1.37211
1.37261
1.37311
1.3736
1.37407
1.37453
1.37497
1.37539
1.37578
1.37616
1.37651
1.37683
1.37714
1.37742
1.37767
1.3779
1.37811
1.37829
1.37844
1.37857
1.37868
1.37876
1.37881
1.37883
1.37883
1.3788
1.37874
1.37865
1.37853
1.37839
1.37821
1.378
1.37775
1.37748
1.37717
1.37683
1.37646
1.37605
1.3756
1.37512
1.37461
1.37406
1.37347
1.37285
1.37219
1.37149
1.37076
1.36999
1.36919
1.36835
1.36747
1.36655
1.3656
1.36461
1.36359
1.36253
1.36144
1.36031
1.35915
1.35795
1.35672
1.35546
1.35416
1.35283
1.35147
1.35008
1.34866
1.34721
1.34572
1.34421
1.34268
1.34111
1.33952
1.3379
1.33625
1.33458
1.33289
1.33117
1.32943
1.32767
1.32588
1.32408
1.32225
1.32041
1.31855
1.31667
1.31477
1.31285
1.31092
1.30898
1.30702
1.30504
1.30305
1.30105
1.29904
1.29702
1.29498
1.29294
1.29088
1.28882
1.28675
1.28467
1.28258
1.28049
1.27839
1.27629
1.27418
1.27206
1.26994
1.26782
1.26569
1.26356
1.26143
1.2593
1.25716
1.25502
1.25288
1.25075
1.24861
1.24647
1.24433
1.24219
1.24005
1.23792
1.23578
1.23365
1.23152
1.22939
1.22726
1.22513
1.22301
1.2209
1.21878
1.21667
1.21456
1.21246
1.21037
1.20828
1.2062
1.20426
1.36865
1.36873
1.36885
1.36903
1.36926
1.36953
1.36986
1.37022
1.37062
1.37105
1.37149
1.37195
1.37242
1.37289
1.37335
1.37381
1.37426
1.3747
1.37513
1.37554
1.37593
1.3763
1.37665
1.37698
1.37728
1.37757
1.37782
1.37806
1.37826
1.37844
1.37859
1.37872
1.37881
1.37887
1.3789
1.3789
1.37887
1.37881
1.37871
1.37857
1.3784
1.3782
1.37796
1.37768
1.37736
1.37701
1.37662
1.37619
1.37572
1.37521
1.37467
1.37408
1.37346
1.37279
1.37209
1.37134
1.37056
1.36974
1.36888
1.36798
1.36704
1.36606
1.36504
1.36399
1.3629
1.36177
1.3606
1.3594
1.35816
1.35689
1.35558
1.35424
1.35287
1.35146
1.35002
1.34855
1.34704
1.34551
1.34394
1.34235
1.34073
1.33908
1.3374
1.3357
1.33397
1.33221
1.33043
1.32863
1.3268
1.32495
1.32308
1.32119
1.31928
1.31735
1.3154
1.31343
1.31145
1.30945
1.30743
1.3054
1.30335
1.30129
1.29921
1.29712
1.29503
1.29291
1.29079
1.28866
1.28652
1.28437
1.28221
1.28004
1.27787
1.27569
1.2735
1.27131
1.26911
1.26691
1.2647
1.26249
1.26027
1.25805
1.25583
1.25361
1.25139
1.24916
1.24693
1.2447
1.24248
1.24025
1.23802
1.23579
1.23357
1.23134
1.22912
1.22689
1.22467
1.22245
1.22024
1.21802
1.21581
1.2136
1.2114
1.2092
1.20701
1.20482
1.20263
1.20045
1.19829
1.19628
1.36864
1.36869
1.36878
1.36892
1.36909
1.36931
1.36957
1.36987
1.3702
1.37056
1.37094
1.37134
1.37176
1.37218
1.37261
1.37305
1.37348
1.37391
1.37434
1.37475
1.37515
1.37553
1.3759
1.37625
1.37658
1.37689
1.37717
1.37743
1.37766
1.37786
1.37804
1.37818
1.37829
1.37837
1.37842
1.37843
1.3784
1.37834
1.37824
1.3781
1.37793
1.37771
1.37745
1.37715
1.37681
1.37643
1.37601
1.37555
1.37504
1.37449
1.3739
1.37327
1.37259
1.37187
1.37111
1.37031
1.36947
1.36858
1.36765
1.36668
1.36568
1.36463
1.36354
1.36241
1.36124
1.36004
1.35879
1.35751
1.3562
1.35484
1.35345
1.35203
1.35057
1.34908
1.34756
1.346
1.34441
1.3428
1.34115
1.33947
1.33776
1.33603
1.33426
1.33247
1.33066
1.32882
1.32696
1.32507
1.32316
1.32122
1.31927
1.31729
1.3153
1.31328
1.31125
1.3092
1.30713
1.30505
1.30295
1.30083
1.2987
1.29656
1.2944
1.29223
1.29005
1.28785
1.28565
1.28343
1.28121
1.27898
1.27674
1.27449
1.27223
1.26997
1.2677
1.26542
1.26314
1.26086
1.25857
1.25627
1.25398
1.25168
1.24937
1.24707
1.24476
1.24245
1.24014
1.23783
1.23552
1.23321
1.2309
1.22859
1.22628
1.22397
1.22166
1.21936
1.21705
1.21475
1.21245
1.21015
1.20786
1.20557
1.20328
1.20099
1.19872
1.19644
1.19417
1.19191
1.18967
1.18759
1.36862
1.36866
1.36873
1.36883
1.36897
1.36914
1.36934
1.36958
1.36985
1.37014
1.37046
1.3708
1.37116
1.37153
1.37192
1.37231
1.3727
1.3731
1.37349
1.37388
1.37426
1.37463
1.37499
1.37533
1.37565
1.37595
1.37623
1.37648
1.3767
1.3769
1.37707
1.3772
1.3773
1.37737
1.3774
1.37739
1.37734
1.37725
1.37712
1.37695
1.37674
1.37649
1.37619
1.37585
1.37546
1.37503
1.37456
1.37403
1.37347
1.37286
1.3722
1.3715
1.37076
1.36997
1.36914
1.36826
1.36734
1.36637
1.36537
1.36432
1.36323
1.3621
1.36092
1.35971
1.35846
1.35717
1.35584
1.35447
1.35306
1.35162
1.35015
1.34863
1.34709
1.34551
1.3439
1.34225
1.34058
1.33887
1.33714
1.33537
1.33358
1.33176
1.32991
1.32803
1.32613
1.32421
1.32226
1.32029
1.3183
1.31628
1.31424
1.31219
1.31011
1.30801
1.3059
1.30377
1.30162
1.29945
1.29727
1.29508
1.29287
1.29065
1.28841
1.28617
1.28391
1.28164
1.27935
1.27706
1.27476
1.27245
1.27014
1.26781
1.26548
1.26314
1.2608
1.25844
1.25609
1.25373
1.25136
1.24899
1.24662
1.24425
1.24187
1.23949
1.23711
1.23472
1.23234
1.22995
1.22757
1.22518
1.2228
1.22041
1.21802
1.21564
1.21326
1.21087
1.20849
1.20612
1.20374
1.20137
1.199
1.19663
1.19426
1.1919
1.18955
1.1872
1.18485
1.18252
1.1802
1.17806
1.36861
1.36864
1.36869
1.36877
1.36887
1.369
1.36917
1.36936
1.36957
1.36981
1.37007
1.37035
1.37065
1.37097
1.37129
1.37163
1.37197
1.37232
1.37266
1.373
1.37334
1.37367
1.37398
1.37428
1.37456
1.37482
1.37506
1.37527
1.37545
1.3756
1.37572
1.37581
1.37586
1.37588
1.37585
1.37579
1.37568
1.37553
1.37534
1.3751
1.37482
1.37449
1.37412
1.3737
1.37324
1.37273
1.37217
1.37156
1.37091
1.37021
1.36946
1.36867
1.36784
1.36695
1.36602
1.36505
1.36403
1.36297
1.36187
1.36072
1.35953
1.3583
1.35703
1.35572
1.35437
1.35298
1.35155
1.35008
1.34858
1.34704
1.34547
1.34386
1.34222
1.34055
1.33884
1.33711
1.33534
1.33354
1.33171
1.32986
1.32798
1.32607
1.32413
1.32217
1.32019
1.31818
1.31614
1.31409
1.31201
1.30991
1.3078
1.30566
1.3035
1.30133
1.29914
1.29693
1.29471
1.29247
1.29021
1.28794
1.28566
1.28336
1.28106
1.27874
1.2764
1.27406
1.27171
1.26935
1.26698
1.2646
1.26222
1.25982
1.25742
1.25502
1.2526
1.25018
1.24776
1.24533
1.2429
1.24047
1.23803
1.23559
1.23314
1.23069
1.22825
1.2258
1.22335
1.22089
1.21844
1.21599
1.21354
1.21108
1.20863
1.20618
1.20373
1.20128
1.19884
1.19639
1.19395
1.19151
1.18907
1.18664
1.1842
1.18178
1.17935
1.17693
1.17452
1.17212
1.16974
1.16755
1.36861
1.36862
1.36866
1.36871
1.36879
1.3689
1.36903
1.36918
1.36935
1.36954
1.36976
1.36999
1.37023
1.37049
1.37075
1.37103
1.37131
1.37159
1.37187
1.37215
1.37241
1.37267
1.37291
1.37314
1.37335
1.37353
1.37369
1.37382
1.37392
1.37399
1.37402
1.37402
1.37398
1.37389
1.37377
1.3736
1.3734
1.37314
1.37284
1.3725
1.3721
1.37167
1.37118
1.37064
1.37006
1.36943
1.36876
1.36803
1.36726
1.36644
1.36557
1.36466
1.3637
1.36269
1.36164
1.36055
1.35941
1.35823
1.35701
1.35574
1.35443
1.35308
1.3517
1.35027
1.3488
1.3473
1.34576
1.34419
1.34257
1.34093
1.33925
1.33754
1.33579
1.33402
1.33221
1.33037
1.32851
1.32661
1.32469
1.32274
1.32076
1.31876
1.31674
1.31469
1.31262
1.31052
1.30841
1.30627
1.30411
1.30193
1.29974
1.29752
1.29529
1.29304