/*--------------------------------*- C++ -*----------------------------------*\
| =========                 |                                                 |
| \\      /  F ield         | OpenFOAM: The Open Source CFD Toolbox           |
|  \\    /   O peration     | Version:  5.x                                   |
|   \\  /    A nd           | Web:      www.OpenFOAM.org                      |
|    \\/     M anipulation  |                                                 |
\*---------------------------------------------------------------------------*/
FoamFile
{
    version     2.0;
    format      ascii;
    class       volScalarField;
    location    "0";
    object      nut;
}
// * * * * * * * * * * * * * * * * * * * * * * * * * * * * * * * * * * * * * //

dimensions      [0 2 -1 0 0 0 0];

internalField   nonuniform List<scalar> 
21600
(
0.0131287
0.0130553
0.013015
0.0130012
0.0129971
0.0129966
0.0129978
0.013
0.0130027
0.0130057
0.0130088
0.0130121
0.0130153
0.0130185
0.0130217
0.0130248
0.0130278
0.0130308
0.0130337
0.0130365
0.0130392
0.0130418
0.0130444
0.0130469
0.0130493
0.0130517
0.0130539
0.0130561
0.0130583
0.0130604
0.0130624
0.0130644
0.0130663
0.0130682
0.01307
0.0130718
0.0130735
0.0130752
0.0130768
0.0130784
0.0130799
0.0130814
0.0130828
0.0130842
0.0130855
0.0130868
0.013088
0.0130892
0.0130903
0.0130914
0.0130924
0.0130934
0.0130942
0.0130951
0.0130959
0.0130966
0.0130972
0.0130978
0.0130983
0.0130988
0.0130992
0.0130995
0.0130997
0.0130999
0.0130999
0.0131
0.0130999
0.0130997
0.0130995
0.0130992
0.0130988
0.0130983
0.0130978
0.0130971
0.0130964
0.0130956
0.0130947
0.0130938
0.0130927
0.0130916
0.0130904
0.0130891
0.0130877
0.0130863
0.0130847
0.0130831
0.0130814
0.0130797
0.0130778
0.0130759
0.0130739
0.0130718
0.0130697
0.0130675
0.0130652
0.0130628
0.0130604
0.0130579
0.0130553
0.0130527
0.01305
0.0130473
0.0130444
0.0130416
0.0130386
0.0130356
0.0130326
0.0130295
0.0130263
0.0130231
0.0130199
0.0130165
0.0130132
0.0130098
0.0130064
0.0130029
0.0129994
0.0129958
0.0129922
0.0129886
0.0129849
0.0129812
0.0129775
0.0129738
0.01297
0.0129662
0.0129624
0.0129586
0.0129548
0.012951
0.0129472
0.0129433
0.0129395
0.0129357
0.0129319
0.0129281
0.0129243
0.0129206
0.0129169
0.0129132
0.0129095
0.0129059
0.0129023
0.0128987
0.0128953
0.0128916
0.0128886
0.0128844
0.0128823
0.012877
0.0394625
0.0388038
0.0387134
0.0386909
0.0386755
0.0386646
0.0386569
0.0386515
0.038648
0.038646
0.0386452
0.0386453
0.0386463
0.038648
0.0386501
0.0386527
0.0386556
0.0386587
0.0386621
0.0386656
0.0386693
0.038673
0.0386768
0.0386807
0.0386846
0.0386885
0.0386924
0.0386963
0.0387002
0.0387041
0.0387079
0.0387117
0.0387155
0.0387192
0.0387228
0.0387264
0.0387299
0.0387333
0.0387367
0.0387399
0.0387431
0.0387462
0.0387491
0.038752
0.0387547
0.0387573
0.0387597
0.038762
0.0387642
0.0387662
0.038768
0.0387697
0.0387712
0.0387724
0.0387736
0.0387745
0.0387752
0.0387756
0.0387759
0.038776
0.0387758
0.0387754
0.0387747
0.0387739
0.0387727
0.0387714
0.0387697
0.0387678
0.0387656
0.0387632
0.0387605
0.0387575
0.0387543
0.0387508
0.0387471
0.0387431
0.0387389
0.0387344
0.0387297
0.0387247
0.0387194
0.038714
0.0387082
0.0387023
0.0386961
0.0386897
0.038683
0.0386761
0.038669
0.0386616
0.0386541
0.0386463
0.0386383
0.0386301
0.0386217
0.0386131
0.0386042
0.0385952
0.038586
0.0385766
0.0385671
0.0385573
0.0385474
0.0385373
0.0385271
0.0385166
0.0385061
0.0384953
0.0384844
0.0384734
0.0384622
0.0384509
0.0384395
0.0384279
0.0384162
0.0384043
0.0383924
0.0383803
0.0383681
0.0383558
0.0383434
0.0383309
0.0383183
0.0383056
0.0382928
0.0382799
0.038267
0.0382539
0.0382408
0.0382276
0.0382144
0.038201
0.0381876
0.0381742
0.0381607
0.0381471
0.0381336
0.0381199
0.0381063
0.0380925
0.0380789
0.0380651
0.0380514
0.0380376
0.038024
0.0380102
0.0379965
0.0379828
0.0379694
0.0379539
0.069824
0.0681121
0.0674899
0.0672341
0.0671051
0.0670258
0.0669696
0.0669269
0.0668929
0.0668651
0.0668418
0.0668222
0.0668056
0.0667915
0.0667795
0.0667693
0.0667606
0.0667532
0.0667469
0.0667417
0.0667373
0.0667338
0.0667309
0.0667287
0.066727
0.0667257
0.0667249
0.0667245
0.0667244
0.0667246
0.0667251
0.0667258
0.0667267
0.0667277
0.0667289
0.0667302
0.0667315
0.0667329
0.0667343
0.0667357
0.066737
0.0667383
0.0667396
0.0667407
0.0667417
0.0667425
0.0667432
0.0667436
0.0667439
0.0667439
0.0667436
0.066743
0.0667422
0.066741
0.0667394
0.0667375
0.0667353
0.0667326
0.0667296
0.0667261
0.0667222
0.0667179
0.0667131
0.0667079
0.0667022
0.066696
0.0666893
0.066682
0.0666743
0.0666661
0.0666574
0.0666482
0.0666385
0.0666283
0.0666176
0.0666065
0.0665948
0.0665827
0.0665701
0.0665571
0.0665436
0.0665297
0.0665153
0.0665005
0.0664853
0.0664697
0.0664536
0.0664372
0.0664203
0.0664031
0.0663855
0.0663675
0.0663491
0.0663304
0.0663113
0.0662919
0.0662721
0.0662521
0.0662317
0.066211
0.06619
0.0661687
0.0661472
0.0661254
0.0661033
0.0660809
0.0660583
0.0660355
0.0660124
0.0659891
0.0659656
0.0659419
0.0659179
0.0658938
0.0658695
0.065845
0.0658203
0.0657954
0.0657704
0.0657452
0.0657198
0.0656943
0.0656687
0.0656429
0.0656169
0.0655908
0.0655646
0.0655382
0.0655118
0.0654852
0.0654584
0.0654316
0.0654046
0.0653775
0.0653503
0.065323
0.0652955
0.065268
0.0652403
0.0652125
0.0651846
0.0651566
0.0651285
0.0651004
0.065072
0.0650439
0.0650153
0.0649872
0.0649588
0.0649276
0.104608
0.102556
0.101471
0.100906
0.100588
0.100384
0.10024
0.100133
0.100047
0.099976
0.0999156
0.0998632
0.0998171
0.0997761
0.0997395
0.0997065
0.0996767
0.0996498
0.0996252
0.0996029
0.0995826
0.099564
0.0995471
0.0995316
0.0995175
0.0995045
0.0994927
0.0994819
0.099472
0.0994629
0.0994545
0.0994469
0.0994398
0.0994333
0.0994272
0.0994216
0.0994163
0.0994114
0.0994066
0.0994021
0.0993976
0.0993933
0.099389
0.0993846
0.0993802
0.0993756
0.0993708
0.0993658
0.0993606
0.099355
0.0993491
0.0993427
0.0993359
0.0993286
0.0993208
0.0993124
0.0993035
0.0992939
0.0992837
0.0992728
0.0992612
0.0992489
0.0992358
0.099222
0.0992075
0.0991922
0.099176
0.099159
0.0991411
0.0991224
0.0991028
0.0990825
0.0990613
0.0990393
0.0990166
0.098993
0.0989687
0.0989435
0.0989176
0.098891
0.0988636
0.0988355
0.0988067
0.0987773
0.0987472
0.0987164
0.0986849
0.0986529
0.0986202
0.0985868
0.0985529
0.0985185
0.0984834
0.0984478
0.0984117
0.0983751
0.098338
0.0983004
0.0982624
0.0982239
0.098185
0.0981457
0.098106
0.0980659
0.0980254
0.0979846
0.0979434
0.0979019
0.0978602
0.0978181
0.0977757
0.0977331
0.0976901
0.097647
0.0976036
0.09756
0.0975162
0.0974721
0.0974279
0.0973834
0.0973388
0.097294
0.097249
0.0972039
0.0971586
0.0971132
0.0970676
0.0970218
0.0969759
0.0969299
0.0968837
0.0968374
0.096791
0.0967444
0.0966977
0.0966508
0.0966037
0.0965565
0.0965092
0.0964617
0.096414
0.0963662
0.0963181
0.09627
0.0962215
0.0961732
0.0961242
0.0960757
0.0960274
0.0959745
0.142842
0.141136
0.139944
0.139193
0.13871
0.138382
0.138147
0.137968
0.137825
0.137706
0.137604
0.137515
0.137435
0.137363
0.137297
0.137237
0.137182
0.13713
0.137082
0.137038
0.136996
0.136957
0.136921
0.136887
0.136855
0.136825
0.136797
0.136771
0.136746
0.136723
0.136701
0.13668
0.13666
0.136642
0.136624
0.136607
0.13659
0.136575
0.136559
0.136545
0.13653
0.136516
0.136502
0.136488
0.136474
0.13646
0.136446
0.136432
0.136417
0.136402
0.136386
0.13637
0.136353
0.136335
0.136317
0.136298
0.136278
0.136257
0.136235
0.136212
0.136188
0.136163
0.136137
0.13611
0.136081
0.136052
0.136021
0.135989
0.135955
0.135921
0.135885
0.135847
0.135809
0.135769
0.135728
0.135686
0.135643
0.135598
0.135552
0.135506
0.135458
0.135409
0.135359
0.135308
0.135255
0.135202
0.135148
0.135093
0.135038
0.134981
0.134923
0.134865
0.134805
0.134745
0.134684
0.134623
0.134561
0.134498
0.134434
0.13437
0.134305
0.13424
0.134174
0.134108
0.134041
0.133974
0.133906
0.133838
0.133769
0.133701
0.133631
0.133562
0.133492
0.133422
0.133351
0.133281
0.13321
0.133139
0.133068
0.132996
0.132924
0.132853
0.132781
0.132708
0.132636
0.132564
0.132491
0.132419
0.132346
0.132273
0.1322
0.132127
0.132054
0.131981
0.131907
0.131834
0.13176
0.131686
0.131612
0.131538
0.131464
0.13139
0.131315
0.13124
0.131165
0.13109
0.131015
0.130939
0.130864
0.130784
0.184449
0.183432
0.182487
0.181764
0.181241
0.180861
0.180576
0.180354
0.180175
0.180024
0.179893
0.179777
0.179672
0.179575
0.179486
0.179402
0.179324
0.17925
0.17918
0.179114
0.179052
0.178992
0.178936
0.178882
0.178831
0.178782
0.178736
0.178692
0.178649
0.178609
0.17857
0.178533
0.178498
0.178464
0.178431
0.178399
0.178369
0.178339
0.17831
0.178281
0.178253
0.178226
0.178199
0.178172
0.178144
0.178117
0.17809
0.178062
0.178034
0.178005
0.177976
0.177945
0.177914
0.177882
0.177849
0.177815
0.177779
0.177742
0.177704
0.177664
0.177623
0.17758
0.177536
0.17749
0.177442
0.177392
0.177341
0.177288
0.177233
0.177176
0.177118
0.177057
0.176995
0.176931
0.176865
0.176797
0.176728
0.176656
0.176584
0.176509
0.176433
0.176356
0.176277
0.176196
0.176114
0.176031
0.175946
0.17586
0.175772
0.175683
0.175594
0.175502
0.17541
0.175317
0.175222
0.175127
0.175031
0.174934
0.174835
0.174736
0.174637
0.174536
0.174435
0.174333
0.174231
0.174128
0.174024
0.17392
0.173815
0.17371
0.173605
0.173499
0.173393
0.173286
0.173179
0.173072
0.172965
0.172857
0.17275
0.172642
0.172534
0.172426
0.172317
0.172209
0.172101
0.171992
0.171884
0.171775
0.171667
0.171558
0.171449
0.171341
0.171232
0.171124
0.171015
0.170907
0.170798
0.170689
0.170581
0.170472
0.170363
0.170254
0.170145
0.170036
0.169926
0.169817
0.169707
0.169597
0.169487
0.169374
0.229751
0.229475
0.228982
0.228495
0.228091
0.22777
0.227517
0.227314
0.227144
0.226999
0.22687
0.226754
0.226645
0.226544
0.226448
0.226355
0.226267
0.226182
0.2261
0.226021
0.225944
0.22587
0.225798
0.225729
0.225663
0.225598
0.225536
0.225475
0.225417
0.22536
0.225306
0.225253
0.225201
0.225151
0.225103
0.225055
0.225009
0.224964
0.224919
0.224875
0.224832
0.224789
0.224746
0.224703
0.22466
0.224617
0.224574
0.22453
0.224485
0.224439
0.224392
0.224344
0.224295
0.224245
0.224193
0.224139
0.224083
0.224026
0.223967
0.223905
0.223842
0.223776
0.223708
0.223638
0.223565
0.22349
0.223412
0.223332
0.223249
0.223164
0.223076
0.222985
0.222892
0.222796
0.222698
0.222597
0.222494
0.222389
0.222281
0.222171
0.222059
0.221944
0.221827
0.221709
0.221588
0.221465
0.221341
0.221214
0.221086
0.220956
0.220824
0.220691
0.220556
0.220419
0.220282
0.220142
0.220002
0.21986
0.219717
0.219573
0.219428
0.219282
0.219135
0.218987
0.218838
0.218688
0.218538
0.218387
0.218236
0.218084
0.217931
0.217778
0.217625
0.217471
0.217317
0.217163
0.217008
0.216853
0.216698
0.216543
0.216388
0.216233
0.216078
0.215922
0.215767
0.215612
0.215457
0.215302
0.215147
0.214992
0.214838
0.214683
0.214529
0.214375
0.214221
0.214067
0.213914
0.21376
0.213607
0.213454
0.2133
0.213147
0.212994
0.212841
0.212688
0.212535
0.212381
0.212228
0.212075
0.21192
0.279224
0.279578
0.279597
0.279477
0.279324
0.279178
0.279051
0.278943
0.278848
0.278763
0.278683
0.278606
0.278531
0.278456
0.278381
0.278306
0.27823
0.278154
0.278078
0.278002
0.277927
0.277852
0.277777
0.277703
0.277631
0.277559
0.277488
0.277419
0.277351
0.277283
0.277218
0.277153
0.277089
0.277026
0.276965
0.276904
0.276844
0.276784
0.276725
0.276666
0.276608
0.276549
0.276491
0.276432
0.276372
0.276312
0.276251
0.276189
0.276125
0.276061
0.275994
0.275926
0.275856
0.275784
0.27571
0.275633
0.275554
0.275472
0.275387
0.275299
0.275209
0.275115
0.275019
0.274919
0.274815
0.274709
0.274599
0.274485
0.274368
0.274248
0.274124
0.273996
0.273865
0.27373
0.273592
0.27345
0.273305
0.273157
0.273006
0.272852
0.272694
0.272534
0.272371
0.272204
0.272035
0.271864
0.27169
0.271513
0.271334
0.271152
0.270968
0.270782
0.270594
0.270403
0.270211
0.270017
0.269821
0.269624
0.269425
0.269224
0.269022
0.268819
0.268614
0.268408
0.268201
0.267993
0.267785
0.267575
0.267365
0.267154
0.266942
0.26673
0.266517
0.266303
0.26609
0.265876
0.265662
0.265448
0.265233
0.265019
0.264804
0.264589
0.264375
0.26416
0.263946
0.263732
0.263518
0.263305
0.263091
0.262878
0.262666
0.262453
0.262241
0.26203
0.261819
0.261608
0.261398
0.261188
0.260979
0.26077
0.260561
0.260353
0.260144
0.259937
0.259729
0.259522
0.259314
0.259107
0.2589
0.258693
0.3334
0.334218
0.33471
0.334998
0.335171
0.335285
0.335367
0.335428
0.335476
0.335511
0.335534
0.335546
0.335549
0.335541
0.335525
0.3355
0.335469
0.335431
0.335388
0.33534
0.335288
0.335233
0.335175
0.335114
0.335052
0.334988
0.334923
0.334857
0.334791
0.334724
0.334657
0.334589
0.334521
0.334453
0.334385
0.334317
0.334249
0.33418
0.334111
0.334041
0.333971
0.3339
0.333828
0.333754
0.33368
0.333604
0.333526
0.333446
0.333364
0.33328
0.333193
0.333103
0.333011
0.332915
0.332817
0.332714
0.332608
0.332499
0.332385
0.332268
0.332146
0.33202
0.33189
0.331756
0.331617
0.331473
0.331325
0.331172
0.331015
0.330853
0.330686
0.330514
0.330337
0.330155
0.329969
0.329779
0.329584
0.329385
0.329181
0.328974
0.328762
0.328546
0.328327
0.328103
0.327876
0.327645
0.327411
0.327173
0.326932
0.326688
0.326441
0.326191
0.325938
0.325682
0.325424
0.325163
0.3249
0.324634
0.324367
0.324097
0.323826
0.323553
0.323278
0.323001
0.322723
0.322444
0.322164
0.321882
0.3216
0.321316
0.321032
0.320747
0.320461
0.320175
0.319888
0.319601
0.319314
0.319026
0.318738
0.318451
0.318163
0.317875
0.317588
0.3173
0.317013
0.316726
0.31644
0.316154
0.315869
0.315584
0.315299
0.315015
0.314732
0.31445
0.314168
0.313887
0.313607
0.313328
0.313049
0.312771
0.312494
0.312218
0.311942
0.311667
0.311392
0.311118
0.310843
0.31057
0.310297
0.310028
0.392839
0.393966
0.39484
0.395506
0.396022
0.396436
0.396777
0.397065
0.39731
0.39752
0.397699
0.39785
0.397976
0.39808
0.398164
0.39823
0.39828
0.398315
0.398337
0.398348
0.398349
0.39834
0.398324
0.398301
0.398271
0.398237
0.398197
0.398153
0.398106
0.398055
0.398002
0.397946
0.397887
0.397826
0.397763
0.397699
0.397632
0.397563
0.397492
0.397419
0.397343
0.397266
0.397186
0.397103
0.397018
0.39693
0.396838
0.396744
0.396645
0.396543
0.396437
0.396327
0.396213
0.396093
0.39597
0.395841
0.395707
0.395568
0.395423
0.395273
0.395117
0.394955
0.394788
0.394615
0.394435
0.39425
0.394058
0.39386
0.393656
0.393446
0.39323
0.393007
0.392778
0.392542
0.3923
0.392052
0.391799
0.39154
0.391275
0.391005
0.39073
0.390449
0.390163
0.389872
0.389576
0.389276
0.388971
0.388661
0.388347
0.388029
0.387706
0.38738
0.38705
0.386717
0.38638
0.38604
0.385696
0.38535
0.385001
0.384649
0.384295
0.383938
0.38358
0.383219
0.382856
0.382491
0.382125
0.381757
0.381388
0.381018
0.380646
0.380274
0.379901
0.379527
0.379152
0.378777
0.378401
0.378026
0.37765
0.377273
0.376897
0.376521
0.376146
0.37577
0.375395
0.37502
0.374646
0.374273
0.3739
0.373528
0.373156
0.372786
0.372417
0.372048
0.371681
0.371315
0.37095
0.370586
0.370223
0.369861
0.369501
0.369142
0.368783
0.368426
0.36807
0.367715
0.36736
0.367007
0.366654
0.36631
0.458132
0.459446
0.460595
0.461571
0.4624
0.46311
0.463726
0.464267
0.464744
0.465167
0.465542
0.465873
0.466165
0.466422
0.466646
0.466842
0.46701
0.467155
0.467278
0.467382
0.467468
0.467537
0.467593
0.467636
0.467666
0.467687
0.467697
0.467699
0.467693
0.46768
0.46766
0.467635
0.467603
0.467566
0.467524
0.467478
0.467426
0.46737
0.46731
0.467245
0.467175
0.467101
0.467023
0.466939
0.466851
0.466757
0.466659
0.466554
0.466445
0.466329
0.466207
0.46608
0.465945
0.465804
0.465657
0.465502
0.46534
0.465171
0.464994
0.46481
0.464618
0.464418
0.464211
0.463995
0.463771
0.46354
0.4633
0.463052
0.462796
0.462532
0.462259
0.461979
0.461691
0.461394
0.461088
0.460776
0.460455
0.460128
0.459793
0.459451
0.459102
0.458746
0.458384
0.458015
0.45764
0.457259
0.456871
0.456478
0.456079
0.455675
0.455265
0.454851
0.454431
0.454007
0.453578
0.453146
0.452709
0.452268
0.451823
0.451375
0.450924
0.45047
0.450012
0.449552
0.44909
0.448625
0.448158
0.447689
0.447218
0.446745
0.446271
0.445796
0.445319
0.444841
0.444363
0.443884
0.443404
0.442924
0.442443
0.441962
0.441482
0.441001
0.44052
0.44004
0.439561
0.439081
0.438603
0.438125
0.437648
0.437173
0.436698
0.436224
0.435752
0.435281
0.434811
0.434343
0.433876
0.433411
0.432948
0.432486
0.432026
0.431568
0.431111
0.430656
0.430202
0.429751
0.429299
0.428851
0.428402
0.427968
0.529903
0.531318
0.532646
0.533853
0.534937
0.535908
0.536783
0.537574
0.538292
0.538943
0.539535
0.540073
0.54056
0.541
0.541397
0.541756
0.542077
0.542366
0.542624
0.542853
0.543057
0.543238
0.543396
0.543535
0.543656
0.54376
0.543848
0.543923
0.543984
0.544033
0.544071
0.544098
0.544116
0.544124
0.544123
0.544113
0.544095
0.544069
0.544035
0.543994
0.543944
0.543887
0.543822
0.543749
0.543669
0.54358
0.543483
0.543378
0.543264
0.543142
0.54301
0.54287
0.542721
0.542562
0.542394
0.542215
0.542027
0.541829
0.541621
0.541403
0.541174
0.540935
0.540686
0.540425
0.540155
0.539873
0.539582
0.539279
0.538966
0.538643
0.538309
0.537965
0.53761
0.537245
0.536869
0.536483
0.536088
0.535683
0.535269
0.534846
0.534414
0.533973
0.533524
0.533067
0.532601
0.532128
0.531647
0.531158
0.530662
0.53016
0.52965
0.529134
0.528612
0.528084
0.52755
0.527011
0.526466
0.525917
0.525362
0.524803
0.52424
0.523673
0.523102
0.522528
0.52195
0.521369
0.520785
0.520199
0.51961
0.519019
0.518425
0.51783
0.517234
0.516636
0.516037
0.515436
0.514835
0.514233
0.513631
0.513028
0.512425
0.511822
0.51122
0.510617
0.510015
0.509414
0.508813
0.508214
0.507615
0.507017
0.506421
0.505826
0.505233
0.504641
0.504051
0.503463
0.502877
0.502293
0.501711
0.501131
0.500554
0.499978
0.499405
0.498835
0.498265
0.4977
0.497134
0.496572
0.496011
0.495471
0.608825
0.610283
0.611716
0.613078
0.614351
0.615533
0.616627
0.617642
0.618584
0.619458
0.620268
0.621018
0.621712
0.622353
0.622943
0.623487
0.623986
0.624445
0.624865
0.625249
0.6256
0.62592
0.626211
0.626476
0.626716
0.626932
0.627127
0.627302
0.627457
0.627595
0.627716
0.627822
0.627912
0.627988
0.628051
0.6281
0.628136
0.62816
0.628172
0.628171
0.628159
0.628135
0.628099
0.628051
0.627991
0.62792
0.627837
0.627741
0.627633
0.627513
0.627381
0.627235
0.627077
0.626906
0.626722
0.626525
0.626314
0.62609
0.625853
0.625602
0.625337
0.625058
0.624766
0.62446
0.62414
0.623806
0.623459
0.623099
0.622724
0.622337
0.621936
0.621522
0.621095
0.620655
0.620202
0.619735
0.619256
0.618766
0.618264
0.617751
0.617226
0.61669
0.616144
0.615587
0.61502
0.614443
0.613856
0.61326
0.612655
0.612041
0.611419
0.610789
0.61015
0.609504
0.608851
0.608191
0.607524
0.606851
0.606172
0.605487
0.604797
0.604102
0.603401
0.602696
0.601987
0.601274
0.600557
0.599836
0.599113
0.598386
0.597657
0.596925
0.596191
0.595455
0.594717
0.593978
0.593238
0.592496
0.591754
0.591011
0.590268
0.589524
0.588781
0.588037
0.587294
0.586552
0.58581
0.58507
0.58433
0.583592
0.582855
0.58212
0.581386
0.580655
0.579925
0.579198
0.578473
0.577751
0.577031
0.576314
0.5756
0.574888
0.574179
0.573474
0.572771
0.572071
0.571372
0.570679
0.569986
0.569323
0.695629
0.697094
0.698576
0.700031
0.701433
0.702769
0.704035
0.705233
0.706367
0.707437
0.708447
0.709399
0.710294
0.711134
0.711922
0.71266
0.713349
0.713992
0.714592
0.71515
0.715669
0.716152
0.716599
0.717014
0.717397
0.717752
0.718079
0.718379
0.718655
0.718907
0.719137
0.719345
0.719533
0.719701
0.71985
0.71998
0.720093
0.720187
0.720265
0.720325
0.720368
0.720395
0.720405
0.720398
0.720375
0.720335
0.720279
0.720205
0.720115
0.720008
0.719883
0.719742
0.719583
0.719407
0.719213
0.719002
0.718773
0.718527
0.718263
0.717981
0.717681
0.717364
0.717029
0.716676
0.716306
0.715918
0.715513
0.715091
0.714651
0.714195
0.713722
0.713233
0.712727
0.712205
0.711667
0.711112
0.710543
0.709958
0.709359
0.708746
0.708119
0.707478
0.706824
0.706156
0.705476
0.704784
0.70408
0.703364
0.702637
0.701899
0.70115
0.700392
0.699623
0.698846
0.698059
0.697263
0.696459
0.695648
0.694828
0.694002
0.693169
0.692329
0.691483
0.690631
0.689773
0.688911
0.688044
0.687172
0.686296
0.685417
0.684533
0.683647
0.682757
0.681865
0.680971
0.680074
0.679176
0.678276
0.677375
0.676473
0.67557
0.674667
0.673764
0.67286
0.671957
0.671054
0.670151
0.66925
0.66835
0.667451
0.666554
0.665658
0.664764
0.663873
0.662984
0.662097
0.661213
0.660332
0.659454
0.65858
0.657708
0.65684
0.655976
0.655115
0.654257
0.653403
0.652551
0.651705
0.650861
0.650058
0.791109
0.79256
0.794055
0.795557
0.797036
0.798474
0.799864
0.801201
0.802486
0.803717
0.804896
0.806023
0.807099
0.808123
0.809097
0.810021
0.810897
0.811726
0.81251
0.81325
0.813948
0.814605
0.815223
0.815804
0.816349
0.81686
0.817338
0.817785
0.818202
0.81859
0.81895
0.819283
0.81959
0.819871
0.820128
0.820361
0.82057
0.820755
0.820918
0.821058
0.821175
0.82127
0.821342
0.821393
0.821421
0.821427
0.82141
0.821371
0.82131
0.821227
0.82112
0.820992
0.82084
0.820666
0.82047
0.82025
0.820008
0.819743
0.819455
0.819145
0.818812
0.818456
0.818078
0.817678
0.817256
0.816811
0.816345
0.815858
0.815349
0.814819
0.814269
0.813698
0.813107
0.812496
0.811865
0.811216
0.810546
0.809859
0.809153
0.808431
0.80769
0.806934
0.80616
0.805371
0.804567
0.803747
0.802913
0.802064
0.801202
0.800326
0.799438
0.798537
0.797624
0.796699
0.795764
0.794818
0.793861
0.792895
0.79192
0.790936
0.789943
0.788942
0.787934
0.786918
0.785895
0.784866
0.783831
0.782791
0.781745
0.780694
0.779639
0.778579
0.777516
0.776449
0.775379
0.774306
0.773231
0.772154
0.771075
0.769994
0.768912
0.767829
0.766746
0.765662
0.764578
0.763495
0.762412
0.761329
0.760248
0.759168
0.75809
0.757013
0.755939
0.754866
0.753797
0.75273
0.751666
0.750605
0.749548
0.748494
0.747444
0.746399
0.745357
0.744319
0.743285
0.742257
0.74123
0.740211
0.739194
0.738231
0.896137
0.897564
0.899049
0.900564
0.902081
0.90358
0.90505
0.906484
0.907878
0.909231
0.910543
0.911811
0.913036
0.914216
0.915353
0.916444
0.917491
0.918494
0.919453
0.920369
0.921242
0.922074
0.922866
0.923618
0.924333
0.92501
0.92565
0.926256
0.926827
0.927365
0.92787
0.928344
0.928786
0.929197
0.929578
0.92993
0.930252
0.930544
0.930808
0.931043
0.93125
0.931427
0.931577
0.931697
0.931789
0.931853
0.931888
0.931894
0.931872
0.931821
0.931741
0.931633
0.931495
0.931329
0.931134
0.93091
0.930658
0.930377
0.930067
0.929729
0.929363
0.928968
0.928546
0.928096
0.927619
0.927115
0.926584
0.926027
0.925443
0.924834
0.9242
0.92354
0.922856
0.922148
0.921416
0.920662
0.919884
0.919083
0.918262
0.917418
0.916554
0.91567
0.914766
0.913842
0.9129
0.91194
0.910962
0.909967
0.908956
0.907928
0.906885
0.905827
0.904754
0.903668
0.902568
0.901455
0.90033
0.899193
0.898045
0.896886
0.895717
0.894538
0.89335
0.892153
0.890947
0.889734
0.888513
0.887285
0.886051
0.884811
0.883565
0.882313
0.881057
0.879796
0.878532
0.877263
0.875992
0.874717
0.87344
0.872161
0.87088
0.869598
0.868314
0.86703
0.865745
0.86446
0.863176
0.861892
0.860609
0.859327
0.858046
0.856767
0.855491
0.854216
0.852945
0.851676
0.850411
0.849149
0.847891
0.846636
0.845387
0.844141
0.8429
0.841664
0.840432
0.839207
0.837984
0.836769
0.835558
0.834416
1.01167
1.01307
1.01453
1.01604
1.01756
1.01909
1.0206
1.0221
1.02357
1.02501
1.02641
1.02779
1.02913
1.03043
1.0317
1.03293
1.03412
1.03527
1.03639
1.03746
1.0385
1.03949
1.04045
1.04137
1.04224
1.04308
1.04389
1.04465
1.04538
1.04607
1.04673
1.04735
1.04794
1.04849
1.049
1.04948
1.04992
1.05033
1.05071
1.05105
1.05135
1.05162
1.05185
1.05205
1.05222
1.05235
1.05244
1.0525
1.05252
1.0525
1.05246
1.05237
1.05225
1.05209
1.0519
1.05167
1.05141
1.05111
1.05078
1.05041
1.05001
1.04957
1.0491
1.0486
1.04806
1.04749
1.04689
1.04625
1.04559
1.04489
1.04416
1.0434
1.04262
1.0418
1.04096
1.04009
1.03919
1.03826
1.03731
1.03634
1.03534
1.03431
1.03326
1.03219
1.0311
1.02998
1.02885
1.02769
1.02651
1.02532
1.0241
1.02287
1.02162
1.02036
1.01908
1.01778
1.01647
1.01515
1.01381
1.01246
1.01109
1.00972
1.00833
1.00693
1.00553
1.00411
1.00269
1.00125
0.99981
0.99836
0.996904
0.995441
0.993973
0.992499
0.99102
0.989536
0.988048
0.986556
0.985061
0.983563
0.982063
0.98056
0.979056
0.977551
0.976044
0.974537
0.97303
0.971524
0.970018
0.968512
0.967008
0.965506
0.964006
0.962508
0.961013
0.959521
0.958032
0.956547
0.955066
0.95359
0.952118
0.950651
0.949188
0.947732
0.94628
0.944835
0.943393
0.94196
0.940534
0.939195
1.13876
1.14012
1.14156
1.14304
1.14456
1.14609
1.14762
1.14915
1.15066
1.15215
1.15363
1.15507
1.15649
1.15789
1.15925
1.16059
1.1619
1.16317
1.16441
1.16562
1.16679
1.16793
1.16903
1.17009
1.17112
1.17211
1.17307
1.17398
1.17486
1.1757
1.1765
1.17726
1.17799
1.17867
1.17932
1.17992
1.18049
1.18101
1.1815
1.18194
1.18235
1.18271
1.18303
1.1833
1.18354
1.18373
1.18388
1.18399
1.18405
1.18407
1.18405
1.18398
1.18387
1.18372
1.18353
1.18329
1.18301
1.18269
1.18232
1.18192
1.18147
1.18098
1.18045
1.17988
1.17928
1.17863
1.17794
1.17722
1.17646
1.17566
1.17483
1.17396
1.17306
1.17212
1.17115
1.17015
1.16912
1.16805
1.16696
1.16583
1.16468
1.1635
1.16229
1.16105
1.15979
1.1585
1.15719
1.15585
1.15449
1.15311
1.15171
1.15029
1.14884
1.14738
1.1459
1.1444
1.14289
1.14136
1.13981
1.13825
1.13667
1.13508
1.13347
1.13186
1.13023
1.12859
1.12694
1.12528
1.12361
1.12193
1.12025
1.11855
1.11685
1.11514
1.11343
1.11171
1.10998
1.10825
1.10652
1.10478
1.10304
1.1013
1.09955
1.09781
1.09606
1.09431
1.09256
1.09081
1.08906
1.08731
1.08556
1.08381
1.08206
1.08032
1.07858
1.07684
1.07511
1.07338
1.07165
1.06993
1.06822
1.06651
1.0648
1.0631
1.06141
1.05972
1.05804
1.05636
1.0547
1.05315
1.27856
1.27989
1.28129
1.28275
1.28424
1.28576
1.28729
1.28883
1.29036
1.29189
1.2934
1.29489
1.29636
1.29782
1.29925
1.30067
1.30205
1.30342
1.30475
1.30606
1.30734
1.30859
1.30981
1.311
1.31215
1.31327
1.31435
1.31539
1.3164
1.31737
1.3183
1.31919
1.32003
1.32084
1.3216
1.32232
1.32299
1.32362
1.3242
1.32474
1.32522
1.32566
1.32605
1.3264
1.32669
1.32693
1.32713
1.32727
1.32736
1.3274
1.32739
1.32733
1.32722
1.32706
1.32685
1.32658
1.32627
1.32591
1.3255
1.32504
1.32453
1.32397
1.32337
1.32272
1.32202
1.32128
1.32049
1.31966
1.31879
1.31787
1.31691
1.31591
1.31488
1.3138
1.31268
1.31153
1.31035
1.30912
1.30786
1.30657
1.30524
1.30388
1.30249
1.30107
1.29962
1.29814
1.29663
1.29509
1.29353
1.29194
1.29033
1.28869
1.28703
1.28535
1.28365
1.28193
1.28019
1.27843
1.27665
1.27485
1.27304
1.27121
1.26937
1.26751
1.26564
1.26376
1.26186
1.25996
1.25804
1.25611
1.25417
1.25223
1.25027
1.24831
1.24634
1.24436
1.24238
1.24039
1.23839
1.2364
1.23439
1.23239
1.23038
1.22837
1.22635
1.22434
1.22232
1.22031
1.21829
1.21628
1.21426
1.21225
1.21023
1.20822
1.20622
1.20421
1.20221
1.20022
1.19822
1.19624
1.19425
1.19228
1.1903
1.18834
1.18638
1.18443
1.18248
1.18055
1.17863
1.17684
1.43234
1.43365
1.43501
1.43643
1.4379
1.4394
1.44091
1.44245
1.44398
1.44551
1.44704
1.44856
1.45007
1.45156
1.45304
1.4545
1.45594
1.45737
1.45877
1.46015
1.46151
1.46284
1.46414
1.46542
1.46666
1.46788
1.46905
1.4702
1.4713
1.47237
1.47339
1.47438
1.47532
1.47621
1.47706
1.47786
1.47862
1.47932
1.47997
1.48057
1.48111
1.4816
1.48204
1.48242
1.48274
1.48301
1.48321
1.48336
1.48346
1.48349
1.48347
1.48338
1.48324
1.48304
1.48278
1.48247
1.48209
1.48166
1.48118
1.48063
1.48003
1.47938
1.47867
1.47791
1.4771
1.47623
1.47532
1.47435
1.47334
1.47227
1.47116
1.47001
1.46881
1.46756
1.46628
1.46495
1.46358
1.46217
1.46072
1.45923
1.4577
1.45614
1.45454
1.4529
1.45124
1.44954
1.4478
1.44604
1.44425
1.44243
1.44058
1.43871
1.43681
1.43488
1.43294
1.43097
1.42897
1.42696
1.42493
1.42287
1.4208
1.41871
1.41661
1.41449
1.41235
1.4102
1.40803
1.40586
1.40367
1.40146
1.39925
1.39703
1.3948
1.39255
1.3903
1.38805
1.38578
1.38351
1.38124
1.37895
1.37667
1.37438
1.37208
1.36979
1.36749
1.36519
1.36288
1.36058
1.35827
1.35597
1.35367
1.35136
1.34906
1.34676
1.34447
1.34217
1.33989
1.3376
1.33532
1.33304
1.33077
1.32851
1.32625
1.324
1.32175
1.31951
1.31728
1.31506
1.31286
1.31083
1.60151
1.60279
1.60412
1.6055
1.60694
1.6084
1.6099
1.61141
1.61294
1.61447
1.616
1.61753
1.61905
1.62056
1.62206
1.62355
1.62503
1.62649
1.62793
1.62936
1.63076
1.63214
1.6335
1.63483
1.63613
1.6374
1.63864
1.63984
1.641
1.64213
1.64321
1.64425
1.64524
1.64618
1.64707
1.64791
1.6487
1.64943
1.65011
1.65072
1.65128
1.65177
1.65221
1.65258
1.65288
1.65313
1.6533
1.65341
1.65346
1.65344
1.65336
1.6532
1.65299
1.6527
1.65235
1.65194
1.65146
1.65092
1.65031
1.64964
1.64891
1.64812
1.64727
1.64635
1.64538
1.64435
1.64327
1.64213
1.64093
1.63968
1.63838
1.63703
1.63563
1.63418
1.63269
1.63115
1.62956
1.62792
1.62625
1.62452
1.62276
1.62096
1.61912
1.61724
1.61532
1.61337
1.61138
1.60936
1.60731
1.60522
1.60311
1.60097
1.5988
1.5966
1.59437
1.59213
1.58985
1.58756
1.58524
1.5829
1.58054
1.57816
1.57577
1.57335
1.57092
1.56848
1.56602
1.56354
1.56105
1.55855
1.55604
1.55351
1.55098
1.54843
1.54588
1.54332
1.54075
1.53817
1.53559
1.533
1.53041
1.52781
1.5252
1.5226
1.51999
1.51738
1.51476
1.51215
1.50953
1.50692
1.5043
1.50169
1.49908
1.49647
1.49386
1.49125
1.48865
1.48606
1.48346
1.48088
1.4783
1.47572
1.47315
1.47059
1.46804
1.4655
1.46296
1.46043
1.45793
1.45563
1.7876
1.78885
1.79015
1.7915
1.79289
1.79433
1.79579
1.79728
1.79879
1.80031
1.80183
1.80336
1.80488
1.8064
1.80791
1.80941
1.8109
1.81238
1.81384
1.81528
1.81671
1.81811
1.81949
1.82083
1.82215
1.82344
1.8247
1.82591
1.82709
1.82822
1.8293
1.83034
1.83133
1.83226
1.83314
1.83396
1.83472
1.83541
1.83605
1.83662
1.83712
1.83755
1.83792
1.83821
1.83844
1.83859
1.83867
1.83867
1.83861
1.83847
1.83825
1.83797
1.83761
1.83718
1.83667
1.8361
1.83545
1.83473
1.83395
1.83309
1.83216
1.83117
1.83012
1.82899
1.82781
1.82656
1.82525
1.82388
1.82245
1.82096
1.81942
1.81782
1.81618
1.81447
1.81272
1.81091
1.80906
1.80715
1.8052
1.8032
1.80116
1.79907
1.79695
1.79478
1.79257
1.79032
1.78804
1.78572
1.78337
1.78098
1.77856
1.77611
1.77363
1.77112
1.76859
1.76602
1.76344
1.76082
1.75819
1.75553
1.75285
1.75015
1.74743
1.74469
1.74194
1.73917
1.73638
1.73357
1.73076
1.72793
1.72508
1.72223
1.71936
1.71649
1.7136
1.71071
1.7078
1.70489
1.70198
1.69905
1.69612
1.69319
1.69025
1.68731
1.68437
1.68142
1.67847
1.67552
1.67257
1.66962
1.66667
1.66372
1.66077
1.65783
1.65489
1.65195
1.64901
1.64608
1.64316
1.64024
1.63732
1.63442
1.63152
1.62863
1.62574
1.62287
1.62
1.61715
1.61432
1.61175
1.9923
1.99352
1.99479
1.99611
1.99747
1.99887
2.0003
2.00176
2.00324
2.00474
2.00625
2.00776
2.00927