/*--------------------------------*- C++ -*----------------------------------*\
| =========                 |                                                 |
| \\      /  F ield         | OpenFOAM: The Open Source CFD Toolbox           |
|  \\    /   O peration     | Version:  5.x                                   |
|   \\  /    A nd           | Web:      www.OpenFOAM.org                      |
|    \\/     M anipulation  |                                                 |
\*---------------------------------------------------------------------------*/
FoamFile
{
    version     2.0;
    format      ascii;
    class       volVectorField;
    location    "0";
    object      U;
}
// * * * * * * * * * * * * * * * * * * * * * * * * * * * * * * * * * * * * * //

dimensions      [0 1 -1 0 0 0 0];

internalField   nonuniform List<vector> 
21600
(
(2.7557 0 -0.00129447)
(2.72802 0 0.000519456)
(2.71684 0 0.000257808)
(2.71424 0 6.44948e-05)
(2.71371 0 1.30378e-05)
(2.71376 0 2.3461e-06)
(2.71412 0 -2.2204e-06)
(2.71469 0 -5.27604e-06)
(2.71536 0 -7.27275e-06)
(2.71608 0 -8.41426e-06)
(2.71682 0 -9.09591e-06)
(2.71756 0 -9.48127e-06)
(2.71829 0 -9.67083e-06)
(2.71902 0 -9.7494e-06)
(2.71972 0 -9.73886e-06)
(2.72041 0 -9.66915e-06)
(2.72107 0 -9.5615e-06)
(2.72172 0 -9.4222e-06)
(2.72234 0 -9.26476e-06)
(2.72295 0 -9.09622e-06)
(2.72353 0 -8.92062e-06)
(2.7241 0 -8.74006e-06)
(2.72465 0 -8.55812e-06)
(2.72518 0 -8.37748e-06)
(2.7257 0 -8.19698e-06)
(2.72619 0 -8.01827e-06)
(2.72668 0 -7.84204e-06)
(2.72715 0 -7.66889e-06)
(2.7276 0 -7.49756e-06)
(2.72805 0 -7.32858e-06)
(2.72848 0 -7.162e-06)
(2.72889 0 -6.99679e-06)
(2.7293 0 -6.83265e-06)
(2.72969 0 -6.66928e-06)
(2.73007 0 -6.50557e-06)
(2.73045 0 -6.34194e-06)
(2.73081 0 -6.17718e-06)
(2.73116 0 -6.01034e-06)
(2.7315 0 -5.84078e-06)
(2.73183 0 -5.66783e-06)
(2.73215 0 -5.49079e-06)
(2.73245 0 -5.30916e-06)
(2.73275 0 -5.12221e-06)
(2.73304 0 -4.92948e-06)
(2.73332 0 -4.7303e-06)
(2.73359 0 -4.52422e-06)
(2.73385 0 -4.3108e-06)
(2.73409 0 -4.09001e-06)
(2.73433 0 -3.86121e-06)
(2.73455 0 -3.6245e-06)
(2.73476 0 -3.37938e-06)
(2.73496 0 -3.12608e-06)
(2.73515 0 -2.8642e-06)
(2.73533 0 -2.59408e-06)
(2.73549 0 -2.31545e-06)
(2.73564 0 -2.0283e-06)
(2.73578 0 -1.73332e-06)
(2.7359 0 -1.43308e-06)
(2.73601 0 -1.12348e-06)
(2.7361 0 -8.03549e-07)
(2.73618 0 -4.7778e-07)
(2.73625 0 -1.57173e-07)
(2.7363 0 1.59511e-07)
(2.73633 0 4.72658e-07)
(2.73635 0 8.46032e-07)
(2.73635 0 1.17889e-06)
(2.73634 0 1.52513e-06)
(2.73631 0 1.92203e-06)
(2.73627 0 2.31435e-06)
(2.7362 0 2.70177e-06)
(2.73612 0 3.08065e-06)
(2.73603 0 3.43074e-06)
(2.73591 0 3.82721e-06)
(2.73578 0 4.22985e-06)
(2.73563 0 4.58669e-06)
(2.73547 0 4.96936e-06)
(2.73528 0 5.34288e-06)
(2.73508 0 5.7273e-06)
(2.73487 0 6.07687e-06)
(2.73463 0 6.4876e-06)
(2.73438 0 6.84265e-06)
(2.73411 0 7.19453e-06)
(2.73383 0 7.5519e-06)
(2.73353 0 7.90589e-06)
(2.73321 0 8.25784e-06)
(2.73287 0 8.60696e-06)
(2.73252 0 8.95325e-06)
(2.73215 0 9.29561e-06)
(2.73177 0 9.63447e-06)
(2.73137 0 9.96863e-06)
(2.73096 0 1.02986e-05)
(2.73053 0 1.06233e-05)
(2.73008 0 1.09434e-05)
(2.72962 0 1.12578e-05)
(2.72914 0 1.15671e-05)
(2.72865 0 1.18703e-05)
(2.72815 0 1.21681e-05)
(2.72763 0 1.24596e-05)
(2.7271 0 1.27454e-05)
(2.72655 0 1.30245e-05)
(2.72599 0 1.32977e-05)
(2.72542 0 1.3564e-05)
(2.72483 0 1.38241e-05)
(2.72423 0 1.40769e-05)
(2.72362 0 1.43234e-05)
(2.723 0 1.45624e-05)
(2.72236 0 1.47946e-05)
(2.72172 0 1.50192e-05)
(2.72106 0 1.52366e-05)
(2.7204 0 1.54462e-05)
(2.71972 0 1.56482e-05)
(2.71903 0 1.5842e-05)
(2.71834 0 1.60279e-05)
(2.71763 0 1.62054e-05)
(2.71692 0 1.63742e-05)
(2.71619 0 1.65341e-05)
(2.71546 0 1.6685e-05)
(2.71472 0 1.68265e-05)
(2.71398 0 1.69579e-05)
(2.71323 0 1.70795e-05)
(2.71247 0 1.71903e-05)
(2.71171 0 1.72907e-05)
(2.71094 0 1.73785e-05)
(2.71017 0 1.74556e-05)
(2.70939 0 1.75196e-05)
(2.70861 0 1.75709e-05)
(2.70783 0 1.76065e-05)
(2.70705 0 1.76321e-05)
(2.70627 0 1.76347e-05)
(2.70548 0 1.76383e-05)
(2.7047 0 1.75885e-05)
(2.70392 0 1.75905e-05)
(2.70314 0 1.74682e-05)
(2.70236 0 1.74731e-05)
(2.70159 0 1.72919e-05)
(2.70082 0 1.72839e-05)
(2.70006 0 1.7054e-05)
(2.6993 0 1.70336e-05)
(2.69855 0 1.67402e-05)
(2.69781 0 1.67605e-05)
(2.69708 0 1.63286e-05)
(2.69635 0 1.65619e-05)
(2.69566 0 1.57172e-05)
(2.69492 0 1.66898e-05)
(2.69428 0 1.47103e-05)
(2.6935 0 1.76999e-05)
(2.69299 0 1.19189e-05)
(2.69204 0 2.15773e-05)
(2.69185 0 3.8582e-06)
(2.69045 0 4.08788e-05)
(4.37373 0 0.00385463)
(4.36287 0 0.00181627)
(4.35387 0 0.000518691)
(4.35077 0 0.000162071)
(4.35019 0 3.24118e-05)
(4.35052 0 -1.46141e-05)
(4.3514 0 -4.45659e-05)
(4.35261 0 -6.11687e-05)
(4.35396 0 -6.91759e-05)
(4.35537 0 -7.25389e-05)
(4.3568 0 -7.35137e-05)
(4.35822 0 -7.30365e-05)
(4.35961 0 -7.1739e-05)
(4.36097 0 -7.0047e-05)
(4.36228 0 -6.81074e-05)
(4.36355 0 -6.60403e-05)
(4.36477 0 -6.3935e-05)
(4.36595 0 -6.18279e-05)
(4.36709 0 -5.97574e-05)
(4.36819 0 -5.77468e-05)
(4.36925 0 -5.58081e-05)
(4.37027 0 -5.39437e-05)
(4.37125 0 -5.21582e-05)
(4.3722 0 -5.04552e-05)
(4.37312 0 -4.88282e-05)
(4.37401 0 -4.7275e-05)
(4.37487 0 -4.57929e-05)
(4.3757 0 -4.43792e-05)
(4.3765 0 -4.30267e-05)
(4.37728 0 -4.17316e-05)
(4.37803 0 -4.04902e-05)
(4.37876 0 -3.92966e-05)
(4.37947 0 -3.81457e-05)
(4.38015 0 -3.70335e-05)
(4.38082 0 -3.59538e-05)
(4.38146 0 -3.49044e-05)
(4.38209 0 -3.388e-05)
(4.3827 0 -3.28753e-05)
(4.38329 0 -3.18854e-05)
(4.38386 0 -3.09061e-05)
(4.38441 0 -2.9933e-05)
(4.38494 0 -2.89622e-05)
(4.38546 0 -2.79897e-05)
(4.38596 0 -2.70122e-05)
(4.38644 0 -2.60259e-05)
(4.38691 0 -2.50275e-05)
(4.38736 0 -2.40141e-05)
(4.38779 0 -2.29839e-05)
(4.3882 0 -2.19339e-05)
(4.38859 0 -2.08628e-05)
(4.38896 0 -1.97683e-05)
(4.38932 0 -1.86492e-05)
(4.38965 0 -1.75041e-05)
(4.38997 0 -1.63324e-05)
(4.39027 0 -1.5133e-05)
(4.39054 0 -1.39045e-05)
(4.39079 0 -1.26482e-05)
(4.39102 0 -1.13678e-05)
(4.39123 0 -1.00584e-05)
(4.39142 0 -8.71644e-06)
(4.39158 0 -7.3503e-06)
(4.39172 0 -5.95414e-06)
(4.39184 0 -4.5262e-06)
(4.39193 0 -3.07077e-06)
(4.392 0 -1.57211e-06)
(4.39204 0 -3.13379e-08)
(4.39206 0 1.48524e-06)
(4.39205 0 2.85809e-06)
(4.39202 0 4.51412e-06)
(4.39195 0 6.07789e-06)
(4.39187 0 7.66359e-06)
(4.39175 0 9.17775e-06)
(4.39161 0 1.07856e-05)
(4.39144 0 1.24283e-05)
(4.39125 0 1.39804e-05)
(4.39102 0 1.55818e-05)
(4.39077 0 1.71801e-05)
(4.3905 0 1.88045e-05)
(4.39019 0 2.03619e-05)
(4.38986 0 2.20489e-05)
(4.3895 0 2.36347e-05)
(4.38911 0 2.52002e-05)
(4.3887 0 2.67625e-05)
(4.38826 0 2.83126e-05)
(4.38779 0 2.98545e-05)
(4.3873 0 3.13865e-05)
(4.38678 0 3.29083e-05)
(4.38623 0 3.44173e-05)
(4.38566 0 3.59134e-05)
(4.38507 0 3.73936e-05)
(4.38444 0 3.88581e-05)
(4.3838 0 4.03043e-05)
(4.38313 0 4.17324e-05)
(4.38243 0 4.314e-05)
(4.38171 0 4.45274e-05)
(4.38097 0 4.58922e-05)
(4.3802 0 4.72353e-05)
(4.37941 0 4.85541e-05)
(4.3786 0 4.98494e-05)
(4.37776 0 5.11188e-05)
(4.37691 0 5.23633e-05)
(4.37603 0 5.35803e-05)
(4.37513 0 5.47708e-05)
(4.37421 0 5.59324e-05)
(4.37327 0 5.70661e-05)
(4.37231 0 5.81694e-05)
(4.37134 0 5.92429e-05)
(4.37034 0 6.02847e-05)
(4.36933 0 6.1295e-05)
(4.3683 0 6.22719e-05)
(4.36725 0 6.32153e-05)
(4.36618 0 6.41233e-05)
(4.3651 0 6.49959e-05)
(4.36401 0 6.58311e-05)
(4.3629 0 6.66278e-05)
(4.36178 0 6.73847e-05)
(4.36064 0 6.81006e-05)
(4.3595 0 6.87739e-05)
(4.35834 0 6.94018e-05)
(4.35717 0 6.99841e-05)
(4.35599 0 7.05175e-05)
(4.3548 0 7.10011e-05)
(4.3536 0 7.14289e-05)
(4.3524 0 7.18039e-05)
(4.35119 0 7.21197e-05)
(4.34997 0 7.23734e-05)
(4.34875 0 7.256e-05)
(4.34753 0 7.26845e-05)
(4.34631 0 7.27378e-05)
(4.34508 0 7.27201e-05)
(4.34386 0 7.25933e-05)
(4.34263 0 7.24637e-05)
(4.34142 0 7.20907e-05)
(4.3402 0 7.18619e-05)
(4.339 0 7.12765e-05)
(4.33779 0 7.09109e-05)
(4.33661 0 7.01355e-05)
(4.33542 0 6.96286e-05)
(4.33427 0 6.86532e-05)
(4.3331 0 6.80859e-05)
(4.33198 0 6.68499e-05)
(4.33084 0 6.64757e-05)
(4.32976 0 6.46869e-05)
(4.32863 0 6.52468e-05)
(4.32763 0 6.20512e-05)
(4.32644 0 6.53501e-05)
(4.32562 0 5.68881e-05)
(4.32421 0 7.01564e-05)
(4.32382 0 4.14466e-05)
(4.32185 0 0.000106794)
(5.21902 0 0.00404745)
(5.22294 0 0.00177008)
(5.22077 0 0.00070619)
(5.22004 0 0.000212627)
(5.22063 0 2.24332e-05)
(5.2219 0 -7.67389e-05)
(5.22358 0 -0.00012464)
(5.22546 0 -0.000151354)
(5.22743 0 -0.000164305)
(5.22944 0 -0.000169179)
(5.23143 0 -0.000169566)
(5.23338 0 -0.00016721)
(5.23527 0 -0.000163372)
(5.23711 0 -0.000158827)
(5.23887 0 -0.000153872)
(5.24058 0 -0.000148737)
(5.24221 0 -0.000143597)
(5.24379 0 -0.000138525)
(5.2453 0 -0.000133585)
(5.24676 0 -0.000128821)
(5.24816 0 -0.000124253)
(5.24951 0 -0.000119882)
(5.25081 0 -0.000115713)
(5.25206 0 -0.000111749)
(5.25326 0 -0.000107976)
(5.25442 0 -0.000104385)
(5.25555 0 -0.000100969)
(5.25663 0 -9.77181e-05)
(5.25768 0 -9.46184e-05)
(5.25869 0 -9.16585e-05)
(5.25967 0 -8.88299e-05)
(5.26062 0 -8.61187e-05)
(5.26153 0 -8.35137e-05)
(5.26242 0 -8.1005e-05)
(5.26328 0 -7.85793e-05)
(5.26412 0 -7.623e-05)
(5.26493 0 -7.39463e-05)
(5.26571 0 -7.17165e-05)
(5.26647 0 -6.95303e-05)
(5.26721 0 -6.73777e-05)
(5.26792 0 -6.52494e-05)
(5.26861 0 -6.31367e-05)
(5.26928 0 -6.10309e-05)
(5.26993 0 -5.89244e-05)
(5.27055 0 -5.68092e-05)
(5.27115 0 -5.46779e-05)
(5.27173 0 -5.25243e-05)
(5.27229 0 -5.03434e-05)
(5.27282 0 -4.81295e-05)
(5.27333 0 -4.58787e-05)
(5.27382 0 -4.35862e-05)
(5.27429 0 -4.12492e-05)
(5.27473 0 -3.88641e-05)
(5.27514 0 -3.64293e-05)
(5.27554 0 -3.39424e-05)
(5.27591 0 -3.14e-05)
(5.27625 0 -2.88038e-05)
(5.27657 0 -2.61577e-05)
(5.27686 0 -2.34573e-05)
(5.27712 0 -2.06966e-05)
(5.27736 0 -1.78864e-05)
(5.27757 0 -1.50255e-05)
(5.27775 0 -1.21159e-05)
(5.2779 0 -9.15345e-06)
(5.27802 0 -6.12329e-06)
(5.27812 0 -2.98955e-06)
(5.27818 0 9.82613e-08)
(5.27821 0 3.33003e-06)
(5.27821 0 6.28198e-06)
(5.27818 0 9.55955e-06)
(5.27812 0 1.28652e-05)
(5.27803 0 1.60559e-05)
(5.27791 0 1.93313e-05)
(5.27775 0 2.26838e-05)
(5.27756 0 2.59097e-05)
(5.27734 0 2.92075e-05)
(5.27709 0 3.25042e-05)
(5.27681 0 3.58369e-05)
(5.27649 0 3.90722e-05)
(5.27614 0 4.25069e-05)
(5.27576 0 4.57965e-05)
(5.27535 0 4.90444e-05)
(5.2749 0 5.22763e-05)
(5.27442 0 5.54845e-05)
(5.27391 0 5.86758e-05)
(5.27337 0 6.18479e-05)
(5.2728 0 6.49996e-05)
(5.27219 0 6.81266e-05)
(5.27156 0 7.12281e-05)
(5.27089 0 7.4299e-05)
(5.2702 0 7.73386e-05)
(5.26947 0 8.03425e-05)
(5.26872 0 8.33102e-05)
(5.26794 0 8.62375e-05)
(5.26712 0 8.91242e-05)
(5.26628 0 9.19666e-05)
(5.26541 0 9.47648e-05)
(5.26451 0 9.75149e-05)
(5.26359 0 0.000100217)
(5.26264 0 0.000102868)
(5.26166 0 0.000105467)
(5.26066 0 0.000108012)
(5.25963 0 0.000110503)
(5.25857 0 0.000112935)
(5.2575 0 0.00011531)
(5.25639 0 0.000117624)
(5.25527 0 0.000119877)
(5.25412 0 0.000122065)
(5.25295 0 0.000124189)
(5.25176 0 0.000126244)
(5.25055 0 0.000128231)
(5.24932 0 0.000130145)
(5.24807 0 0.000131986)
(5.24681 0 0.000133751)
(5.24552 0 0.000135436)
(5.24422 0 0.000137039)
(5.2429 0 0.000138558)
(5.24157 0 0.000139989)
(5.24022 0 0.000141327)
(5.23886 0 0.00014257)
(5.23749 0 0.000143712)
(5.2361 0 0.00014475)
(5.23471 0 0.000145675)
(5.2333 0 0.000146489)
(5.23189 0 0.000147181)
(5.23047 0 0.000147743)
(5.22905 0 0.00014817)
(5.22762 0 0.000148461)
(5.22619 0 0.000148617)
(5.22476 0 0.000148596)
(5.22333 0 0.000148416)
(5.2219 0 0.000148112)
(5.22047 0 0.000147464)
(5.21905 0 0.000146908)
(5.21764 0 0.000145845)
(5.21624 0 0.000144972)
(5.21485 0 0.00014353)
(5.21347 0 0.000142326)
(5.21211 0 0.000140511)
(5.21076 0 0.000139069)
(5.20944 0 0.000136881)
(5.20811 0 0.000135484)
(5.20686 0 0.000132747)
(5.20554 0 0.000132184)
(5.20437 0 0.000128213)
(5.203 0 0.000130394)
(5.20202 0 0.000121064)
(5.20044 0 0.000134419)
(5.19989 0 0.000100544)
(5.19774 0 0.000184302)
(5.8048 0 0.00317999)
(5.81555 0 0.00158092)
(5.81862 0 0.000595849)
(5.82113 0 0.000127554)
(5.82363 0 -0.000101122)
(5.82614 0 -0.00020643)
(5.82872 0 -0.000263959)
(5.83132 0 -0.000296164)
(5.83392 0 -0.000310418)
(5.83648 0 -0.000313877)
(5.83897 0 -0.000311211)
(5.84139 0 -0.000304784)
(5.84373 0 -0.000296367)
(5.84598 0 -0.000287036)
(5.84815 0 -0.000277241)
(5.85023 0 -0.000267321)
(5.85222 0 -0.000257529)
(5.85414 0 -0.000247968)
(5.85598 0 -0.000238725)
(5.85775 0 -0.000229857)
(5.85945 0 -0.000221389)
(5.86108 0 -0.000213317)
(5.86265 0 -0.000205638)
(5.86416 0 -0.000198352)
(5.86562 0 -0.000191434)
(5.86702 0 -0.000184863)
(5.86838 0 -0.000178623)
(5.86968 0 -0.000172697)
(5.87094 0 -0.000167056)
(5.87216 0 -0.000161681)
(5.87334 0 -0.000156554)
(5.87448 0 -0.000151651)
(5.87558 0 -0.000146951)
(5.87665 0 -0.000142436)
(5.87768 0 -0.000138083)
(5.87869 0 -0.000133879)
(5.87966 0 -0.000129805)
(5.8806 0 -0.000125841)
(5.88151 0 -0.000121969)
(5.88239 0 -0.000118171)
(5.88324 0 -0.000114432)
(5.88407 0 -0.000110735)
(5.88487 0 -0.000107066)
(5.88564 0 -0.000103411)
(5.88639 0 -9.97569e-05)
(5.88711 0 -9.60901e-05)
(5.88781 0 -9.23995e-05)
(5.88848 0 -8.86762e-05)
(5.88912 0 -8.49103e-05)
(5.88974 0 -8.10942e-05)
(5.89033 0 -7.72199e-05)
(5.8909 0 -7.32814e-05)
(5.89144 0 -6.92729e-05)
(5.89195 0 -6.51903e-05)
(5.89244 0 -6.10296e-05)
(5.89289 0 -5.67844e-05)
(5.89332 0 -5.24566e-05)
(5.89372 0 -4.80493e-05)
(5.89409 0 -4.35586e-05)
(5.89443 0 -3.89761e-05)
(5.89474 0 -3.43147e-05)
(5.89502 0 -2.95707e-05)
(5.89527 0 -2.4749e-05)
(5.89549 0 -1.98389e-05)
(5.89567 0 -1.48421e-05)
(5.89583 0 -9.70077e-06)
(5.89595 0 -4.57965e-06)
(5.89604 0 6.05075e-07)
(5.89609 0 6.02461e-06)
(5.89611 0 1.12121e-05)
(5.89609 0 1.6246e-05)
(5.89604 0 2.18337e-05)
(5.89596 0 2.72613e-05)
(5.89584 0 3.27574e-05)
(5.89568 0 3.81262e-05)
(5.89549 0 4.35808e-05)
(5.89527 0 4.90496e-05)
(5.89501 0 5.45655e-05)
(5.89471 0 5.99548e-05)
(5.89438 0 6.56135e-05)
(5.89401 0 7.1092e-05)
(5.89361 0 7.65037e-05)
(5.89317 0 8.18831e-05)
(5.8927 0 8.7226e-05)
(5.89219 0 9.25414e-05)
(5.89165 0 9.78266e-05)
(5.89107 0 0.000103079)
(5.89046 0 0.000108294)
(5.88981 0 0.000113468)
(5.88913 0 0.000118594)
(5.88842 0 0.00012367)
(5.88767 0 0.00012869)
(5.88689 0 0.000133652)
(5.88608 0 0.00013855)
(5.88523 0 0.000143383)
(5.88435 0 0.000148145)
(5.88345 0 0.000152836)
(5.88251 0 0.000157449)
(5.88154 0 0.000161984)
(5.88054 0 0.000166437)
(5.87951 0 0.000170806)
(5.87845 0 0.000175087)
(5.87737 0 0.000179278)
(5.87625 0 0.000183375)
(5.87511 0 0.000187378)
(5.87394 0 0.000191281)
(5.87275 0 0.000195083)
(5.87153 0 0.00019878)
(5.87029 0 0.00020237)
(5.86902 0 0.000205848)
(5.86773 0 0.000209212)
(5.86641 0 0.000212457)
(5.86508 0 0.00021558)
(5.86372 0 0.000218577)
(5.86235 0 0.000221442)
(5.86095 0 0.000224172)
(5.85954 0 0.000226761)
(5.85811 0 0.000229203)
(5.85666 0 0.000231491)
(5.85519 0 0.00023362)
(5.85372 0 0.000235582)
(5.85223 0 0.00023737)
(5.85072 0 0.00023897)
(5.84921 0 0.000240381)
(5.84769 0 0.00024159)
(5.84615 0 0.000242582)
(5.84462 0 0.000243349)
(5.84307 0 0.000243884)
(5.84153 0 0.000244197)
(5.83998 0 0.0002442)
(5.83843 0 0.000243986)
(5.83688 0 0.000243461)
(5.83534 0 0.000242503)
(5.8338 0 0.000241511)
(5.83227 0 0.000239878)
(5.83074 0 0.000238322)
(5.82924 0 0.000236063)
(5.82774 0 0.000233914)
(5.82627 0 0.000231056)
(5.8248 0 0.00022841)
(5.82338 0 0.000225048)
(5.82194 0 0.000222183)
(5.82057 0 0.000218361)
(5.81915 0 0.000215989)
(5.81788 0 0.000211475)
(5.81641 0 0.000211242)
(5.81533 0 0.000202399)
(5.81366 0 0.000212816)
(5.813 0 0.000178353)
(5.81077 0 0.000271395)
(6.26374 0 0.00235686)
(6.27473 0 0.00104644)
(6.28035 0 0.000268739)
(6.28502 0 -0.000126952)
(6.28904 0 -0.000325173)
(6.29264 0 -0.000421558)
(6.29603 0 -0.000474201)
(6.29928 0 -0.000501582)
(6.30242 0 -0.000510604)
(6.30544 0 -0.000508215)
(6.30835 0 -0.000499207)
(6.31116 0 -0.00048608)
(6.31386 0 -0.000470825)
(6.31645 0 -0.000454699)
(6.31894 0 -0.000438239)
(6.32133 0 -0.000421851)
(6.32362 0 -0.000405844)
(6.32583 0 -0.000390333)
(6.32794 0 -0.000375414)
(6.32997 0 -0.000361151)
(6.33193 0 -0.000347564)
(6.3338 0 -0.000334638)
(6.33561 0 -0.000322361)
(6.33735 0 -0.000310724)
(6.33902 0 -0.000299686)
(6.34064 0 -0.000289213)
(6.3422 0 -0.000279274)
(6.3437 0 -0.000269841)
(6.34515 0 -0.000260872)
(6.34655 0 -0.000252333)
(6.34791 0 -0.000244196)
(6.34922 0 -0.000236423)
(6.35049 0 -0.000228983)
(6.35171 0 -0.000221846)
(6.3529 0 -0.000214978)
(6.35406 0 -0.000208356)
(6.35517 0 -0.000201953)
(6.35625 0 -0.000195738)
(6.3573 0 -0.000189684)
(6.35831 0 -0.000183764)
(6.3593 0 -0.000177953)
(6.36025 0 -0.000172227)
(6.36117 0 -0.000166564)
(6.36206 0 -0.000160942)
(6.36292 0 -0.000155342)
(6.36376 0 -0.000149742)
(6.36456 0 -0.000144126)
(6.36534 0 -0.000138479)
(6.36608 0 -0.000132787)
(6.3668 0 -0.000127037)
(6.36749 0 -0.000121217)
(6.36815 0 -0.000115317)
(6.36878 0 -0.000109327)
(6.36938 0 -0.000103242)
(6.36995 0 -9.70534e-05)
(6.37049 0 -9.07524e-05)
(6.371 0 -8.43402e-05)
(6.37148 0 -7.78178e-05)
(6.37193 0 -7.11824e-05)
(6.37235 0 -6.44229e-05)
(6.37273 0 -5.75533e-05)
(6.37308 0 -5.05675e-05)
(6.3734 0 -4.3473e-05)
(6.37369 0 -3.62531e-05)
(6.37394 0 -2.89224e-05)
(6.37415 0 -2.14149e-05)
(6.37434 0 -1.38929e-05)
(6.37448 0 -6.28683e-06)
(6.37459 0 1.56699e-06)
(6.37467 0 9.25609e-06)
(6.37471 0 1.72064e-05)
(6.37471 0 2.46134e-05)
(6.37467 0 3.2808e-05)
(6.3746 0 4.08487e-05)
(6.37449 0 4.88158e-05)
(6.37435 0 5.68051e-05)
(6.37416 0 6.48313e-05)
(6.37394 0 7.29303e-05)
(6.37368 0 8.08759e-05)
(6.37339 0 8.91599e-05)
(6.37305 0 9.72331e-05)
(6.37268 0 0.000105216)
(6.37227 0 0.000113151)
(6.37182 0 0.000121035)
(6.37134 0 0.000128881)
(6.37082 0 0.000136685)
(6.37026 0 0.000144444)
(6.36966 0 0.00015215)
(6.36903 0 0.000159799)
(6.36837 0 0.000167382)
(6.36766 0 0.000174894)
(6.36692 0 0.000182328)
(6.36615 0 0.000189679)
(6.36534 0 0.000196941)
(6.3645 0 0.00020411)
(6.36362 0 0.000211179)
(6.36271 0 0.000218145)
(6.36177 0 0.000225003)
(6.36079 0 0.000231748)
(6.35978 0 0.000238375)
(6.35874 0 0.000244882)
(6.35766 0 0.000251262)
(6.35656 0 0.000257514)
(6.35543 0 0.00026363)
(6.35427 0 0.000269608)
(6.35307 0 0.000275443)
(6.35185 0 0.000281132)
(6.35061 0 0.000286667)
(6.34933 0 0.000292047)
(6.34803 0 0.000297264)
(6.34671 0 0.000302315)
(6.34535 0 0.000307193)
(6.34398 0 0.000311892)
(6.34258 0 0.000316406)
(6.34116 0 0.000320729)
(6.33972 0 0.000324851)
(6.33826 0 0.000328767)
(6.33678 0 0.000332468)
(6.33528 0 0.000335942)
(6.33376 0 0.000339182)
(6.33223 0 0.000342175)
(6.33068 0 0.000344912)
(6.32912 0 0.000347373)
(6.32755 0 0.000349554)
(6.32597 0 0.000351435)
(6.32437 0 0.000352998)
(6.32277 0 0.00035423)
(6.32116 0 0.000355113)
(6.31955 0 0.000355664)
(6.31793 0 0.000355761)
(6.31631 0 0.000355566)
(6.3147 0 0.000354831)
(6.31308 0 0.000353577)
(6.31147 0 0.000352103)
(6.30988 0 0.000349861)
(6.30828 0 0.00034752)
(6.30671 0 0.000344353)
(6.30513 0 0.000341098)
(6.30359 0 0.000337053)
(6.30205 0 0.000332976)
(6.30056 0 0.000328257)
(6.29905 0 0.000323622)
(6.29762 0 0.000318534)
(6.29613 0 0.000313933)
(6.29479 0 0.000308796)
(6.29327 0 0.000305507)
(6.29211 0 0.000297544)
(6.29041 0 0.000303607)
(6.28965 0 0.000271074)
(6.2874 0 0.000366339)
(6.64884 0 0.00170767)
(6.65736 0 0.000455094)
(6.66323 0 -0.000184639)
(6.66861 0 -0.000507424)
(6.67339 0 -0.000656241)
(6.67765 0 -0.000721817)
(6.68158 0 -0.000754467)
(6.68527 0 -0.000767239)
(6.68878 0 -0.000764521)
(6.69213 0 -0.000751777)
(6.69534 0 -0.000733104)
(6.69842 0 -0.000710706)
(6.70138 0 -0.0006865)
(6.70422 0 -0.000661752)
(6.70695 0 -0.000636997)
(6.70957 0 -0.000612652)
(6.71209 0 -0.000589048)
(6.71451 0 -0.000566291)
(6.71684 0 -0.000544472)
(6.71908 0 -0.00052365)
(6.72123 0 -0.000503839)
(6.72331 0 -0.000485005)
(6.72531 0 -0.000467122)
(6.72723 0 -0.000450171)
(6.72909 0 -0.000434094)
(6.73088 0 -0.000418838)
(6.73261 0 -0.000404359)
(6.73428 0 -0.000390614)
(6.73589 0 -0.000377547)
(6.73745 0 -0.000365106)
(6.73896 0 -0.000353252)
(6.74042 0 -0.000341933)
(6.74184 0 -0.000331102)
(6.74321 0 -0.00032072)
(6.74453 0 -0.000310737)
(6.74582 0 -0.000301121)
(6.74706 0 -0.000291835)
(6.74827 0 -0.000282835)
(6.74944 0 -0.000274084)
(6.75057 0 -0.000265543)
(6.75167 0 -0.000257179)
(6.75274 0 -0.000248957)
(6.75377 0 -0.000240847)
(6.75477 0 -0.000232818)
(6.75574 0 -0.000224842)
(6.75667 0 -0.000216891)
(6.75757 0 -0.000208941)
(6.75845 0 -0.00020097)
(6.75929 0 -0.000192958)
(6.7601 0 -0.000184887)
(6.76087 0 -0.00017674)
(6.76162 0 -0.000168501)
(6.76234 0 -0.000160159)
(6.76302 0 -0.000151702)
(6.76367 0 -0.00014312)
(6.7643 0 -0.0001344)
(6.76488 0 -0.000125542)
(6.76544 0 -0.000116544)
(6.76596 0 -0.000107403)
(6.76645 0 -9.81069e-05)
(6.76691 0 -8.86692e-05)
(6.76733 0 -7.90817e-05)
(6.76771 0 -6.93532e-05)
(6.76806 0 -5.94629e-05)
(6.76838 0 -4.94325e-05)
(6.76866 0 -3.91996e-05)
(6.7689 0 -2.89113e-05)
(6.76911 0 -1.853e-05)
(6.76928 0 -7.83101e-06)
(6.76941 0 2.72782e-06)
(6.76951 0 1.33355e-05)
(6.76957 0 2.4351e-05)
(6.76958 0 3.47264e-05)
(6.76956 0 4.57435e-05)
(6.76951 0 5.68369e-05)
(6.76941 0 6.77556e-05)
(6.76928 0 7.86863e-05)
(6.7691 0 8.97412e-05)
(6.76889 0 0.000100632)
(6.76864 0 0.000111932)
(6.76835 0 0.00012299)
(6.76802 0 0.000133937)
(6.76765 0 0.000144821)
(6.76724 0 0.000155643)
(6.76679 0 0.000166415)
(6.7663 0 0.000177133)
(6.76578 0 0.000187793)
(6.76522 0 0.000198385)
(6.76462 0 0.000208902)
(6.76398 0 0.000219333)
(6.76331 0 0.000229672)
(6.76259 0 0.000239909)
(6.76184 0 0.000250038)
(6.76106 0 0.00026005)
(6.76024 0 0.000269939)
(6.75938 0 0.000279697)
(6.75849 0 0.000289319)
(6.75756 0 0.000298797)
(6.75659 0 0.000308126)
(6.7556 0 0.000317298)
(6.75457 0 0.00032631)
(6.7535 0 0.000335153)
(6.75241 0 0.000343823)
(6.75128 0 0.000352313)
(6.75012 0 0.000360618)
(6.74893 0 0.00036873)
(6.74771 0 0.000376645)
(6.74647 0 0.000384355)
(6.74519 0 0.000391854)
(6.74388 0 0.000399133)
(6.74255 0 0.000406188)
(6.74119 0 0.000413008)
(6.73981 0 0.000419586)
(6.7384 0 0.000425913)
(6.73697 0 0.000431979)
(6.73551 0 0.000437774)
(6.73403 0 0.000443287)
(6.73254 0 0.000448507)
(6.73102 0 0.000453418)
(6.72948 0 0.000458009)
(6.72793 0 0.000462264)
(6.72635 0 0.000466168)
(6.72477 0 0.000469696)
(6.72317 0 0.000472839)
(6.72155 0 0.000475571)
(6.71993 0 0.000477869)
(6.7183 0 0.000479714)
(6.71666 0 0.000481077)
(6.71501 0 0.000481976)
(6.71336 0 0.000482265)
(6.7117 0 0.000482163)
(6.71005 0 0.000481271)
(6.7084 0 0.000479765)
(6.70675 0 0.000477804)
(6.70511 0 0.000474944)
(6.70347 0 0.000471763)
(6.70186 0 0.000467628)
(6.70025 0 0.000463154)
(6.69867 0 0.000457808)
(6.69708 0 0.000452131)
(6.69555 0 0.000445887)
(6.69399 0 0.000439252)
(6.69252 0 0.000432694)
(6.69099 0 0.000425575)
(6.68961 0 0.000419603)
(6.68806 0 0.00041289)
(6.68685 0 0.000405784)
(6.68513 0 0.000406754)
(6.68432 0 0.000377645)
(6.68205 0 0.000470049)
(6.98548 0 0.00123608)
(6.99127 0 -3.96186e-05)
(6.99604 0 -0.000657106)
(7.00099 0 -0.000943702)
(7.00575 0 -0.00105272)
(7.01013 0 -0.00108414)
(7.01424 0 -0.00109135)
(7.0181 0 -0.00108441)
(7.02177 0 -0.00106585)
(7.02527 0 -0.00103967)
(7.02862 0 -0.00100898)
(7.03185 0 -0.000975475)
(7.03495 0 -0.000940811)
(7.03793 0 -0.000906142)
(7.0408 0 -0.000871921)
(7.04357 0 -0.000838538)
(7.04623 0 -0.000806316)
(7.0488 0 -0.000775337)
(7.05127 0 -0.000745674)
(7.05366 0 -0.000717379)
(7.05596 0 -0.000690456)
(7.05817 0 -0.00066485)
(7.06031 0 -0.00064052)
(7.06238 0 -0.000617437)
(7.06437 0 -0.000595526)
(7.0663 0 -0.000574715)
(7.06817 0 -0.000554946)
(7.06997 0 -0.000536163)
(7.07171 0 -0.000518292)
(7.0734 0 -0.000501266)
(7.07504 0 -0.000485032)
(7.07662 0 -0.000469525)
(7.07816 0 -0.000454683)
(7.07964 0 -0.000440453)
(7.08109 0 -0.000426772)
(7.08248 0 -0.000413596)
(7.08384 0 -0.000400877)
(7.08516 0 -0.000388559)
(7.08643 0 -0.000376591)
(7.08767 0 -0.000364926)
(7.08887 0 -0.000353517)
(7.09004 0 -0.000342321)
(7.09117 0 -0.000331297)
(7.09226 0 -0.000320405)
(7.09332 0 -0.000309608)
(7.09434 0 -0.000298868)
(7.09534 0 -0.000288155)
(7.09629 0 -0.000277439)
(7.09722 0 -0.000266694)
(7.09811 0 -0.000255895)
(7.09897 0 -0.000245019)
(7.0998 0 -0.000234046)
(7.10059 0 -0.000222959)
(7.10135 0 -0.000211742)
(7.10208 0 -0.000200383)
(7.10277 0 -0.000188861)
(7.10343 0 -0.000177177)
(7.10406 0 -0.000165325)
(7.10465 0 -0.000153303)
(7.10521 0 -0.000141095)
(7.10573 0 -0.000128714)
(7.10621 0 -0.000116151)
(7.10666 0 -0.000103414)
(7.10708 0 -9.04808e-05)
(7.10746 0 -7.73741e-05)
(7.1078 0 -6.40435e-05)
(7.1081 0 -5.06117e-05)
(7.10837 0 -3.7083e-05)
(7.1086 0 -2.31843e-05)
(7.10879 0 -9.37452e-06)
(7.10894 0 4.50155e-06)
(7.10905 0 1.86795e-05)
(7.10912 0 3.28369e-05)
(7.10915 0 4.70585e-05)
(7.10915 0 6.06663e-05)
(7.1091 0 7.54066e-05)
(7.10902 0 8.9719e-05)
(7.1089 0 0.000104082)
(7.10873 0 0.000118291)
(7.10853 0 0.000133002)
(7.10829 0 0.000147436)
(7.108 0 0.000161738)
(7.10768 0 0.000175965)
(7.10731 0 0.00019012)
(7.10691 0 0.000204216)
(7.10647 0 0.000218246)
(7.10599 0 0.000232204)
(7.10547 0 0.000246078)
(7.10491 0 0.000259859)
(7.10431 0 0.000273534)
(7.10367 0 0.000287094)
(7.10299 0 0.000300527)
(7.10228 0 0.000313826)
(7.10153 0 0.000326978)
(7.10074 0 0.000339976)
(7.09991 0 0.000352809)
(7.09905 0 0.000365472)
(7.09815 0 0.000377953)
(7.09722 0 0.000390246)
(7.09625 0 0.00040234)
(7.09525 0 0.000414231)
(7.09421 0 0.000425908)
(7.09314 0 0.000437365)
(7.09203 0 0.000448592)
(7.0909 0 0.000459583)
(7.08973 0 0.000470329)
(7.08853 0 0.000480821)
(7.08729 0 0.000491051)
(7.08603 0 0.00050101)
(7.08474 0 0.000510687)
(7.08342 0 0.000520075)
(7.08208 0 0.000529161)
(7.0807 0 0.000537935)
(7.0793 0 0.000546385)
(7.07788 0 0.000554498)
(7.07643 0 0.00056226)
(7.07496 0 0.000569657)
(7.07346 0 0.000576674)
(7.07195 0 0.000583292)
(7.07041 0 0.000589493)
(7.06886 0 0.000595258)
(7.06728 0 0.000600566)
(7.06569 0 0.000605387)
(7.06409 0 0.000609706)
(7.06247 0 0.000613489)
(7.06084 0 0.000616707)
(7.0592 0 0.000619336)
(7.05755 0 0.000621335)
(7.05589 0 0.000622716)
(7.05423 0 0.000623319)
(7.05256 0 0.000623401)
(7.05089 0 0.000622441)
(7.04923 0 0.000620752)
(7.04756 0 0.00061833)
(7.04591 0 0.000614868)
(7.04425 0 0.000610823)
(7.04262 0 0.000605685)
(7.04099 0 0.000599914)
(7.03939 0 0.000593176)
(7.03778 0 0.000585765)
(7.03622 0 0.000577846)
(7.03465 0 0.000569025)
(7.03316 0 0.00056079)
(7.03161 0 0.000550928)
(7.0302 0 0.000543866)
(7.02864 0 0.00053348)
(7.0274 0 0.00052705)
(7.02568 0 0.000522456)
(7.02482 0 0.00049774)
(7.02256 0 0.000583459)
(7.28772 0 0.000914466)
(7.29139 0 -0.000400591)
(7.29465 0 -0.00106856)
(7.29853 0 -0.00136583)
(7.30267 0 -0.00146521)
(7.30673 0 -0.00147606)
(7.31064 0 -0.00146226)
(7.3144 0 -0.00143671)
(7.31799 0 -0.00140219)
(7.32146 0 -0.00136214)
(7.3248 0 -0.00131892)
(7.32803 0 -0.00127382)
(7.33114 0 -0.00122826)
(7.33415 0 -0.00118325)
(7.33706 0 -0.00113913)
(7.33988 0 -0.00109626)
(7.3426 0 -0.00105495)
(7.34523 0 -0.00101526)
(7.34777 0 -0.000977234)
(7.35023 0 -0.000940931)
(7.35261 0 -0.000906342)
(7.35491 0 -0.000873395)
(7.35713 0 -0.00084204)
(7.35929 0 -0.000812241)
(7.36137 0 -0.000783908)
(7.3634 0 -0.000756953)
(7.36535 0 -0.000731305)
(7.36725 0 -0.000706898)
(7.36909 0 -0.000683644)
(7.37087 0 -0.000661458)
(7.3726 0 -0.000640278)
(7.37428 0 -0.000620024)
(7.3759 0 -0.00060062)
(7.37748 0 -0.000582001)
(7.37902 0 -0.000564089)
(7.3805 0 -0.00054683)
(7.38195 0 -0.000530164)
(7.38335 0 -0.000514022)
(7.38472 0 -0.000498343)
(7.38604 0 -0.000483066)
(7.38732 0 -0.000468135)
(7.38857 0 -0.000453494)
(7.38978 0 -0.000439093)
(7.39095 0 -0.000424882)
(7.39209 0 -0.000410815)
(7.39319 0 -0.000396846)
(7.39426 0 -0.000382933)
(7.39529 0 -0.000369042)
(7.39629 0 -0.000355139)
(7.39726 0 -0.000341191)
(7.39819 0 -0.00032717)
(7.39908 0 -0.000313051)
(7.39994 0 -0.000298811)
(7.40077 0 -0.000284429)
(7.40156 0 -0.00026989)
(7.40232 0 -0.000255168)
(7.40304 0 -0.000240261)
(7.40373 0 -0.000225161)
(7.40438 0 -0.000209863)
(7.405 0 -0.000194352)
(7.40558 0 -0.000178637)
(7.40612 0 -0.00016271)
(7.40663 0 -0.000146575)
(7.4071 0 -0.00013021)
(7.40754 0 -0.000113637)
(7.40793 0 -9.68213e-05)
(7.40829 0 -7.98581e-05)
(7.40861 0 -6.27846e-05)
(7.4089 0 -4.53206e-05)
(7.40914 0 -2.78821e-05)
(7.40934 0 -1.03558e-05)
(7.40951 0 7.50488e-06)
(7.40963 0 2.52968e-05)
(7.40972 0 4.31349e-05)
(7.40976 0 6.13582e-05)
(7.40977 0 7.86303e-05)
(7.40973 0 9.70683e-05)
(7.40966 0 0.000115224)
(7.40954 0 0.000133101)
(7.40939 0 0.000151612)
(7.40919 0 0.000169815)
(7.40896 0 0.000187868)
(7.40868 0 0.000205836)
(7.40836 0 0.000223726)
(7.40801 0 0.000241547)
(7.40761 0 0.000259291)
(7.40717 0 0.00027695)
(7.4067 0 0.000294507)
(7.40618 0 0.000311954)
(7.40562 0 0.000329273)
(7.40503 0 0.000346453)
(7.4044 0 0.000363481)
(7.40372 0 0.000380347)
(7.40301 0 0.000397035)
(7.40226 0 0.000413537)
(7.40148 0 0.000429839)
(7.40065 0 0.000445934)
(7.39979 0 0.000461807)
(7.3989 0 0.000477451)
(7.39797 0 0.000492853)
(7.397 0 0.000508005)
(7.39599 0 0.000522896)
(7.39496 0 0.000537516)
(7.39388 0 0.000551853)
(7.39278 0 0.000565901)
(7.39164 0 0.000579645)
(7.39047 0 0.000593076)
(7.38927 0 0.000606183)
(7.38804 0 0.000618955)
(7.38678 0 0.000631379)
(7.38548 0 0.000643442)
(7.38416 0 0.000655131)
(7.38281 0 0.000666431)
(7.38144 0 0.000677328)
(7.38003 0 0.000687806)
(7.37861 0 0.000697845)
(7.37716 0 0.000707429)
(7.37568 0 0.000716537)
(7.37418 0 0.000725147)
(7.37266 0 0.000733234)
(7.37112 0 0.000740775)
(7.36957 0 0.000747743)
(7.36799 0 0.000754102)
(7.3664 0 0.000759828)
(7.36479 0 0.000764881)
(7.36317 0 0.000769226)
(7.36154 0 0.00077283)
(7.3599 0 0.000775639)
(7.35825 0 0.000777658)
(7.35659 0 0.000778719)
(7.35493 0 0.000779091)
(7.35326 0 0.00077818)
(7.3516 0 0.000776397)
(7.34993 0 0.000773563)
(7.34828 0 0.000769539)
(7.34662 0 0.000764632)
(7.34499 0 0.000758477)
(7.34335 0 0.000751357)
(7.34175 0 0.000743158)
(7.34014 0 0.000733904)
(7.33858 0 0.000724178)
(7.337 0 0.000713016)
(7.3355 0 0.000702906)
(7.33395 0 0.000690119)
(7.33253 0 0.000681696)
(7.33096 0 0.000667455)
(7.32971 0 0.000661442)
(7.328 0 0.000650974)
(7.32711 0 0.00063122)
(7.32486 0 0.000707331)
(7.56424 0 0.000692405)
(7.56654 0 -0.000637892)
(7.56842 0 -0.00137653)
(7.57108 0 -0.00172402)