# Probe 0 (44.65 35.42 1)
# Probe 1 (44.65 35.42 3)
# Probe 2 (44.65 35.42 8)
# Probe 3 (52.13 22.51 1)
# Probe 4 (52.13 22.51 3)
# Probe 5 (52.13 22.51 8)
# Probe 6 (57 8.01 1)
# Probe 7 (57 8.01 3)
# Probe 8 (57 8.01 8)
# Probe 9 (56.58 6.95 1)
# Probe 10 (56.58 6.95 3)
# Probe 11 (56.58 6.95 8)
# Probe 12 (53.37 21.56 1)
# Probe 13 (53.37 21.56 3)
# Probe 14 (53.37 21.56 8)
# Probe 15 (45.14 34.46 1)
# Probe 16 (45.14 34.46 3)
# Probe 17 (45.14 34.46 8)
# Probe 18 (34.75 45.17 1)
# Probe 19 (34.75 45.17 3)
# Probe 20 (34.75 45.17 8)
# Probe 21 (121.4 69.72 1)
# Probe 22 (121.4 69.72 3)
# Probe 23 (121.4 69.72 8)
# Probe 24 (133.12 42.09 1)
# Probe 25 (133.12 42.09 3)
# Probe 26 (133.12 42.09 8)
# Probe 27 (139.63 13.08 1)
# Probe 28 (139.63 13.08 3)
# Probe 29 (139.63 13.08 8)
# Probe 30 (138.96 17.06 1)
# Probe 31 (138.96 17.06 3)
# Probe 32 (138.96 17.06 8)
# Probe 33 (132.32 46.47 1)
# Probe 34 (132.32 46.47 3)
# Probe 35 (132.32 46.47 8)
# Probe 36 (118.98 73.05 1)
# Probe 37 (118.98 73.05 3)
# Probe 38 (118.98 73.05 8)
# Probe 39 (100.93 97.02 1)
# Probe 40 (100.93 97.02 3)
# Probe 41 (100.93 97.02 8)
# Probe 42 (378.52 128.83 1)
# Probe 43 (378.52 128.83 3)
# Probe 44 (378.52 128.83 8)
# Probe 45 (393.53 70.57 1)
# Probe 46 (393.53 70.57 3)
# Probe 47 (393.53 70.57 8)
# Probe 48 (399.84 11.15 1)
# Probe 49 (399.84 11.15 3)
# Probe 50 (399.84 11.15 8)
# Probe 51 (397.02 48.75 1)
# Probe 52 (397.02 48.75 3)
# Probe 53 (397.02 48.75 8)
# Probe 54 (385.26 107.55 1)
# Probe 55 (385.26 107.55 3)
# Probe 56 (385.26 107.55 8)
# Probe 57 (364.77 163.67 1)
# Probe 58 (364.77 163.67 3)
# Probe 59 (364.77 163.67 8)
# Probe 60 (336.11 216.58 1)
# Probe 61 (336.11 216.58 3)
# Probe 62 (336.11 216.58 8)
# Probe 63 (797.53 62.27 1)
# Probe 64 (797.53 62.27 3)
# Probe 65 (797.53 62.27 8)
# Probe 66 (799.8 17.7 1)
# Probe 67 (799.8 17.7 3)
# Probe 68 (799.8 17.7 8)
# Probe 69 (794.04 97.5 1)
# Probe 70 (794.04 97.5 3)
# Probe 71 (794.04 97.5 8)
# Probe 72 (780.33 176.31 1)
# Probe 73 (780.33 176.31 3)
# Probe 74 (780.33 176.31 8)
# Probe 75 (758.78 253.36 1)
# Probe 76 (758.78 253.36 3)
# Probe 77 (758.78 253.36 8)
#       Probe             0             1             2             3             4             5             6             7             8             9            10            11            12            13            14            15            16            17            18            19            20            21            22            23            24            25            26            27            28            29            30            31            32            33            34            35            36            37            38            39            40            41            42            43            44            45            46            47            48            49            50            51            52            53            54            55            56            57            58            59            60            61            62            63            64            65            66            67            68            69            70            71            72            73            74            75            76            77
#        Time
            1             0             0             0   2.63309e-08   5.10647e-08   1.12952e-07    9.6875e-05   7.60612e-05   7.21301e-06   0.000110996   8.85811e-05   7.21301e-06   2.35704e-07   4.48164e-07   1.12952e-07   1.08498e-13             0             0   3.39093e-18    4.9963e-17             0   1.81414e-20   1.38759e-19             0   1.87234e-16   2.50271e-15   2.36847e-13   1.24349e-09   2.68444e-09   3.93754e-09   6.59316e-10   1.53059e-09    1.5542e-09    1.0595e-17   2.56371e-16             0    4.9679e-21   1.02119e-19   9.73906e-18             0             0             0   2.10809e-29    2.1644e-28   4.46031e-27   1.05043e-24    8.2268e-24   1.04138e-22    5.3592e-20   2.59174e-19   1.32983e-18    5.1425e-22   3.20552e-21   2.68087e-20   1.83017e-27   1.73017e-26   3.05649e-25   1.06716e-33   1.24987e-32   3.35133e-31   1.75208e-39   2.61692e-38   1.01546e-36   6.52377e-35   4.13978e-34   3.83833e-33   4.49236e-33   2.53943e-32   1.86092e-31    1.1904e-36   8.02144e-36   8.23902e-35   2.23196e-42   1.75918e-41    2.3682e-40   5.08422e-49   4.73276e-48   8.59284e-47
            2   6.68059e-15             0             0   2.40354e-07   4.24546e-07    7.9409e-07   0.000755362   0.000547747   5.06315e-05    0.00085854   0.000632564   5.06315e-05   2.17578e-06   3.69884e-06    7.9409e-07   1.42498e-12             0             0   6.07366e-18   2.59509e-16             0             0             0             0   3.81897e-15   5.46108e-14      3.39e-12   1.78159e-08   3.68561e-08   5.58822e-08   9.37736e-09   2.06561e-08   2.21709e-08   2.19967e-16    5.3392e-15             0      4.64e-20   8.23829e-19   1.08766e-16             0             0             0   6.88404e-28    6.7858e-27   1.33879e-25   3.43415e-23   2.63886e-22   3.29096e-21   1.72482e-18   7.85421e-18   3.85148e-17   1.69065e-20   1.02322e-19   8.39821e-19   5.88251e-26   5.38373e-25   9.08782e-24   3.39331e-32   3.87215e-31   1.03808e-29   5.66629e-38   8.20365e-37   3.09649e-35   3.74376e-33    2.3083e-32   2.01687e-31   2.45718e-31   1.36565e-30    1.0043e-29   6.97815e-35   4.62139e-34   4.59296e-33    1.3614e-40   1.06055e-39   1.41517e-38   3.06633e-47   2.80825e-46   5.01516e-45
