/*--------------------------------*- C++ -*----------------------------------*\
| =========                 |                                                 |
| \\      /  F ield         | OpenFOAM: The Open Source CFD Toolbox           |
|  \\    /   O peration     | Version:  5.x                                   |
|   \\  /    A nd           | Web:      www.OpenFOAM.org                      |
|    \\/     M anipulation  |                                                 |
\*---------------------------------------------------------------------------*/
FoamFile
{
    version     2.0;
    format      ascii;
    class       volVectorField;
    location    "0";
    object      U;
}
// * * * * * * * * * * * * * * * * * * * * * * * * * * * * * * * * * * * * * //

dimensions      [0 1 -1 0 0 0 0];

internalField   nonuniform List<vector> 
62746
(
(4.99619 -1.45164e-06 7.94021e-06)
(4.99592 -1.45177e-06 7.43306e-06)
(4.99567 -1.44953e-06 6.96529e-06)
(4.99544 -1.44511e-06 6.53349e-06)
(4.99522 -1.4387e-06 6.13512e-06)
(4.99501 -1.43042e-06 5.7696e-06)
(4.99482 -1.41992e-06 5.4319e-06)
(4.99464 -1.4078e-06 5.11765e-06)
(4.99447 -1.39424e-06 4.82758e-06)
(4.99431 -1.37928e-06 4.55929e-06)
(4.99416 -1.36304e-06 4.31118e-06)
(4.99402 -1.34559e-06 4.08167e-06)
(4.99388 -1.32708e-06 3.86914e-06)
(4.99376 -1.30754e-06 3.67221e-06)
(4.99363 -1.28714e-06 3.48957e-06)
(4.99352 -1.26591e-06 3.32001e-06)
(4.99341 -1.24403e-06 3.16236e-06)
(4.99331 -1.22149e-06 3.01567e-06)
(4.99321 -1.19843e-06 2.87872e-06)
(4.99312 -1.17489e-06 2.75086e-06)
(4.99303 -1.15097e-06 2.63104e-06)
(4.99294 -1.12671e-06 2.51864e-06)
(4.99286 -1.10225e-06 2.41284e-06)
(4.99278 -1.07736e-06 2.31398e-06)
(4.99271 -1.05245e-06 2.22107e-06)
(4.99264 -1.02743e-06 2.13214e-06)
(4.99257 -1.00241e-06 2.0476e-06)
(4.99251 -9.77292e-07 1.96694e-06)
(4.99244 -9.52252e-07 1.88961e-06)
(4.99238 -9.27362e-07 1.81593e-06)
(4.99233 -9.02716e-07 1.74513e-06)
(4.99227 -8.7839e-07 1.67771e-06)
(4.99222 -8.54499e-07 1.61344e-06)
(4.99217 -8.30964e-07 1.55255e-06)
(4.99212 -8.07933e-07 1.49342e-06)
(4.99207 -7.85071e-07 1.43676e-06)
(4.99203 -7.6267e-07 1.38158e-06)
(4.99199 -7.39786e-07 1.32972e-06)
(4.99195 -7.1715e-07 1.27801e-06)
(4.99191 -6.94834e-07 1.22864e-06)
(4.99187 -6.72939e-07 1.18014e-06)
(4.99183 -6.51542e-07 1.13448e-06)
(4.9918 -6.30507e-07 1.08891e-06)
(4.99176 -6.09591e-07 1.04559e-06)
(4.99173 -5.88867e-07 1.00246e-06)
(4.9917 -5.68638e-07 9.61817e-07)
(4.99167 -5.48425e-07 9.21126e-07)
(4.99164 -5.2934e-07 8.83101e-07)
(4.99161 -5.1015e-07 8.45177e-07)
(4.99159 -4.9262e-07 8.09449e-07)
(4.99156 -4.74597e-07 7.75123e-07)
(4.99154 -4.59319e-07 7.3927e-07)
(4.99152 -4.43507e-07 7.07861e-07)
(4.9915 -4.29559e-07 6.72614e-07)
(4.99147 -4.15878e-07 6.4384e-07)
(4.99145 -4.01549e-07 6.09647e-07)
(4.99144 -3.89684e-07 5.83069e-07)
(4.99142 -3.7628e-07 5.51613e-07)
(4.9914 -3.65926e-07 5.26201e-07)
(4.99139 -3.54636e-07 4.94227e-07)
(4.99137 -3.44423e-07 4.68766e-07)
(4.99136 -3.34566e-07 4.35995e-07)
(4.99134 -3.25013e-07 4.13998e-07)
(4.99133 -3.17613e-07 3.69861e-07)
(4.99132 -3.0919e-07 3.63526e-07)
(4.99131 -3.04559e-07 2.78844e-07)
(4.9913 -2.94541e-07 3.23593e-07)
(4.99129 -2.93431e-07 1.17701e-07)
(4.99128 -2.65396e-07 3.54789e-07)
(4.99619 -2.60373e-06 7.90132e-06)
(4.99592 -2.63355e-06 7.39551e-06)
(4.99567 -2.66024e-06 6.92917e-06)
(4.99544 -2.6838e-06 6.49883e-06)
(4.99522 -2.70438e-06 6.10193e-06)
(4.99502 -2.72191e-06 5.73791e-06)
(4.99483 -2.73562e-06 5.4018e-06)
(4.99464 -2.74636e-06 5.0891e-06)
(4.99447 -2.75428e-06 4.80059e-06)
(4.99431 -2.7592e-06 4.53384e-06)
(4.99416 -2.76133e-06 4.28728e-06)
(4.99402 -2.7605e-06 4.05929e-06)
(4.99389 -2.75704e-06 3.84826e-06)
(4.99376 -2.7507e-06 3.65284e-06)
(4.99364 -2.74188e-06 3.47166e-06)
(4.99352 -2.73033e-06 3.30353e-06)
(4.99341 -2.71659e-06 3.14726e-06)
(4.99331 -2.70034e-06 3.00193e-06)
(4.99321 -2.68188e-06 2.86632e-06)
(4.99312 -2.66132e-06 2.73975e-06)
(4.99303 -2.63877e-06 2.62117e-06)
(4.99295 -2.6143e-06 2.51003e-06)
(4.99286 -2.58807e-06 2.40538e-06)
(4.99279 -2.55991e-06 2.30756e-06)
(4.99271 -2.53024e-06 2.21568e-06)
(4.99264 -2.49898e-06 2.12778e-06)
(4.99257 -2.46655e-06 2.04424e-06)
(4.99251 -2.43284e-06 1.96456e-06)
(4.99245 -2.39805e-06 1.88817e-06)
(4.99239 -2.36223e-06 1.81538e-06)
(4.99233 -2.32549e-06 1.74541e-06)
(4.99227 -2.28796e-06 1.67875e-06)
(4.99222 -2.24971e-06 1.61517e-06)
(4.99217 -2.21045e-06 1.55484e-06)
(4.99212 -2.17116e-06 1.49619e-06)
(4.99208 -2.1314e-06 1.44002e-06)
(4.99203 -2.09135e-06 1.3852e-06)
(4.99199 -2.05011e-06 1.33384e-06)
(4.99195 -2.00848e-06 1.28252e-06)
(4.99191 -1.96664e-06 1.23354e-06)
(4.99187 -1.92441e-06 1.18535e-06)
(4.99183 -1.88172e-06 1.14e-06)
(4.9918 -1.8395e-06 1.09481e-06)
(4.99176 -1.79762e-06 1.05187e-06)
(4.99173 -1.75548e-06 1.00906e-06)
(4.9917 -1.71395e-06 9.68666e-07)
(4.99167 -1.67146e-06 9.28268e-07)
(4.99164 -1.62994e-06 8.90325e-07)
(4.99161 -1.58736e-06 8.52751e-07)
(4.99159 -1.54578e-06 8.16981e-07)
(4.99156 -1.50477e-06 7.83102e-07)
(4.99154 -1.46846e-06 7.47198e-07)
(4.99152 -1.43148e-06 7.1594e-07)
(4.9915 -1.39729e-06 6.80817e-07)
(4.99147 -1.36332e-06 6.51886e-07)
(4.99145 -1.32858e-06 6.18161e-07)
(4.99144 -1.29612e-06 5.91153e-07)
(4.99142 -1.26031e-06 5.59986e-07)
(4.9914 -1.23006e-06 5.34545e-07)
(4.99138 -1.20066e-06 5.02638e-07)
(4.99137 -1.17231e-06 4.77202e-07)
(4.99136 -1.1459e-06 4.44484e-07)
(4.99134 -1.11906e-06 4.22392e-07)
(4.99133 -1.09602e-06 3.7829e-07)
(4.99132 -1.06943e-06 3.71736e-07)
(4.99131 -1.0485e-06 2.86844e-07)
(4.9913 -1.01707e-06 3.31471e-07)
(4.99129 -1.00462e-06 1.24601e-07)
(4.99128 -9.38766e-07 3.62158e-07)
(4.99619 -3.52499e-06 7.90624e-06)
(4.99592 -3.58235e-06 7.40029e-06)
(4.99567 -3.63602e-06 6.93381e-06)
(4.99544 -3.68592e-06 6.50333e-06)
(4.99522 -3.7321e-06 6.10629e-06)
(4.99502 -3.77442e-06 5.74213e-06)
(4.99483 -3.81237e-06 5.40595e-06)
(4.99465 -3.84638e-06 5.09318e-06)
(4.99448 -3.87654e-06 4.80463e-06)
(4.99431 -3.90262e-06 4.5378e-06)
(4.99416 -3.92482e-06 4.29122e-06)
(4.99402 -3.94292e-06 4.06319e-06)
(4.99389 -3.95719e-06 3.85215e-06)
(4.99376 -3.96739e-06 3.65667e-06)
(4.99364 -3.97385e-06 3.47549e-06)
(4.99352 -3.97633e-06 3.30733e-06)
(4.99341 -3.97531e-06 3.15108e-06)
(4.99331 -3.97048e-06 3.00576e-06)
(4.99321 -3.96216e-06 2.87014e-06)
(4.99312 -3.95043e-06 2.74359e-06)
(4.99303 -3.93534e-06 2.62504e-06)
(4.99295 -3.91705e-06 2.51391e-06)
(4.99286 -3.89564e-06 2.40917e-06)
(4.99279 -3.87126e-06 2.3113e-06)
(4.99271 -3.84394e-06 2.21943e-06)
(4.99264 -3.81385e-06 2.13148e-06)
(4.99257 -3.78144e-06 2.04796e-06)
(4.99251 -3.74665e-06 1.96833e-06)
(4.99245 -3.70954e-06 1.89197e-06)
(4.99239 -3.6701e-06 1.81921e-06)
(4.99233 -3.62841e-06 1.74925e-06)
(4.99227 -3.58455e-06 1.68264e-06)
(4.99222 -3.53867e-06 1.61906e-06)
(4.99217 -3.49084e-06 1.55855e-06)
(4.99212 -3.4419e-06 1.49977e-06)
(4.99208 -3.3916e-06 1.44354e-06)
(4.99203 -3.33994e-06 1.38867e-06)
(4.99199 -3.28694e-06 1.3373e-06)
(4.99195 -3.23281e-06 1.28593e-06)
(4.99191 -3.17778e-06 1.23693e-06)
(4.99187 -3.12163e-06 1.18865e-06)
(4.99183 -3.06448e-06 1.14296e-06)
(4.9918 -3.00759e-06 1.09755e-06)
(4.99176 -2.95074e-06 1.05463e-06)
(4.99173 -2.8933e-06 1.01183e-06)
(4.9917 -2.83593e-06 9.71478e-07)
(4.99167 -2.77736e-06 9.31248e-07)
(4.99164 -2.71873e-06 8.93483e-07)
(4.99161 -2.65922e-06 8.55923e-07)
(4.99159 -2.59959e-06 8.19631e-07)
(4.99156 -2.54195e-06 7.85485e-07)
(4.99154 -2.48678e-06 7.49733e-07)
(4.99152 -2.4318e-06 7.18585e-07)
(4.9915 -2.37863e-06 6.83624e-07)
(4.99147 -2.32561e-06 6.54859e-07)
(4.99145 -2.27327e-06 6.21284e-07)
(4.99144 -2.2209e-06 5.94225e-07)
(4.99142 -2.16805e-06 5.62307e-07)
(4.9914 -2.11899e-06 5.36398e-07)
(4.99138 -2.07256e-06 5.04853e-07)
(4.99137 -2.02635e-06 4.79483e-07)
(4.99136 -1.98313e-06 4.47139e-07)
(4.99134 -1.93922e-06 4.25254e-07)
(4.99133 -1.89884e-06 3.81371e-07)
(4.99132 -1.85535e-06 3.74876e-07)
(4.99131 -1.81644e-06 2.89242e-07)
(4.9913 -1.77023e-06 3.33918e-07)
(4.99129 -1.73789e-06 1.26606e-07)
(4.99128 -1.6681e-06 3.6542e-07)
(4.99619 -4.74806e-06 7.90339e-06)
(4.99592 -4.82952e-06 7.39779e-06)
(4.99567 -4.90583e-06 6.93161e-06)
(4.99544 -4.97695e-06 6.50141e-06)
(4.99522 -5.04284e-06 6.10463e-06)
(4.99502 -5.10344e-06 5.74068e-06)
(4.99483 -5.15855e-06 5.40473e-06)
(4.99465 -5.20828e-06 5.09211e-06)
(4.99448 -5.25267e-06 4.80371e-06)
(4.99431 -5.29167e-06 4.53699e-06)
(4.99416 -5.32531e-06 4.2905e-06)
(4.99402 -5.35357e-06 4.06251e-06)
(4.99389 -5.37654e-06 3.85153e-06)
(4.99376 -5.39425e-06 3.65609e-06)
(4.99364 -5.40679e-06 3.47492e-06)
(4.99352 -5.41421e-06 3.30675e-06)
(4.99341 -5.41662e-06 3.15051e-06)
(4.99331 -5.41412e-06 3.00516e-06)
(4.99321 -5.40687e-06 2.86948e-06)
(4.99312 -5.39495e-06 2.74289e-06)
(4.99303 -5.37847e-06 2.62428e-06)
(4.99295 -5.3576e-06 2.51308e-06)
(4.99286 -5.33255e-06 2.40837e-06)
(4.99279 -5.30347e-06 2.31045e-06)
(4.99271 -5.27044e-06 2.21849e-06)
(4.99264 -5.23368e-06 2.13049e-06)
(4.99257 -5.19352e-06 2.04687e-06)
(4.99251 -5.14999e-06 1.96718e-06)
(4.99245 -5.1031e-06 1.89072e-06)
(4.99239 -5.05281e-06 1.81786e-06)
(4.99233 -4.99931e-06 1.74781e-06)
(4.99227 -4.94256e-06 1.68112e-06)
(4.99222 -4.88313e-06 1.61743e-06)
(4.99217 -4.82114e-06 1.55692e-06)
(4.99212 -4.75698e-06 1.49818e-06)
(4.99208 -4.69068e-06 1.44202e-06)
(4.99203 -4.62246e-06 1.38715e-06)
(4.99199 -4.5524e-06 1.33584e-06)
(4.99195 -4.48074e-06 1.28451e-06)
(4.99191 -4.40776e-06 1.23552e-06)
(4.99187 -4.33353e-06 1.18725e-06)
(4.99183 -4.25824e-06 1.14154e-06)
(4.9918 -4.18246e-06 1.09622e-06)
(4.99176 -4.10599e-06 1.05329e-06)
(4.99173 -4.02892e-06 1.01048e-06)
(4.9917 -3.95152e-06 9.70145e-07)
(4.99167 -3.87356e-06 9.29947e-07)
(4.99164 -3.79547e-06 8.92189e-07)
(4.99161 -3.71708e-06 8.54608e-07)
(4.99159 -3.6388e-06 8.18313e-07)
(4.99156 -3.56156e-06 7.84278e-07)
(4.99154 -3.48535e-06 7.48598e-07)
(4.99152 -3.40968e-06 7.17407e-07)
(4.9915 -3.33552e-06 6.82455e-07)
(4.99147 -3.26174e-06 6.53661e-07)
(4.99145 -3.18932e-06 6.20041e-07)
(4.99144 -3.11708e-06 5.92909e-07)
(4.99142 -3.0465e-06 5.6092e-07)
(4.9914 -2.9775e-06 5.35038e-07)
(4.99138 -2.91097e-06 5.03552e-07)
(4.99137 -2.84489e-06 4.78143e-07)
(4.99136 -2.78214e-06 4.45771e-07)
(4.99134 -2.71935e-06 4.23793e-07)
(4.99133 -2.6606e-06 3.79718e-07)
(4.99132 -2.60033e-06 3.73189e-07)
(4.99131 -2.54571e-06 2.87379e-07)
(4.9913 -2.48507e-06 3.32145e-07)
(4.99129 -2.43691e-06 1.24697e-07)
(4.99128 -2.35997e-06 3.63502e-07)
(4.99619 -5.70113e-06 7.90666e-06)
(4.99592 -5.81973e-06 7.40098e-06)
(4.99567 -5.9319e-06 6.93472e-06)
(4.99544 -6.03749e-06 6.50446e-06)
(4.99522 -6.13633e-06 6.10759e-06)
(4.99502 -6.22836e-06 5.74355e-06)
(4.99483 -6.31346e-06 5.40748e-06)
(4.99464 -6.39154e-06 5.09476e-06)
(4.99447 -6.46254e-06 4.8062e-06)
(4.99431 -6.52643e-06 4.53938e-06)
(4.99416 -6.58317e-06 4.29277e-06)
(4.99402 -6.63282e-06 4.06465e-06)
(4.99389 -6.67535e-06 3.85355e-06)
(4.99376 -6.71089e-06 3.65794e-06)
(4.99364 -6.73943e-06 3.47664e-06)
(4.99352 -6.76111e-06 3.30832e-06)
(4.99341 -6.77597e-06 3.1519e-06)
(4.99331 -6.78424e-06 3.00639e-06)
(4.99321 -6.78599e-06 2.87058e-06)
(4.99312 -6.78144e-06 2.74385e-06)
(4.99303 -6.77069e-06 2.6251e-06)
(4.99295 -6.75398e-06 2.51374e-06)
(4.99286 -6.73153e-06 2.40892e-06)
(4.99279 -6.70361e-06 2.31088e-06)
(4.99271 -6.67032e-06 2.21881e-06)
(4.99264 -6.63191e-06 2.13065e-06)
(4.99257 -6.58874e-06 2.04689e-06)
(4.99251 -6.54092e-06 1.96704e-06)
(4.99245 -6.48842e-06 1.89045e-06)
(4.99239 -6.43116e-06 1.81746e-06)
(4.99233 -6.36933e-06 1.74728e-06)
(4.99227 -6.30294e-06 1.68051e-06)
(4.99222 -6.2327e-06 1.61673e-06)
(4.99217 -6.15882e-06 1.55606e-06)
(4.99212 -6.08171e-06 1.49721e-06)
(4.99208 -6.00157e-06 1.44094e-06)
(4.99203 -5.91873e-06 1.38602e-06)
(4.99199 -5.83344e-06 1.33463e-06)
(4.99195 -5.74589e-06 1.2832e-06)
(4.99191 -5.65639e-06 1.23414e-06)
(4.99187 -5.56511e-06 1.18582e-06)
(4.99183 -5.47212e-06 1.13996e-06)
(4.9918 -5.37806e-06 1.09453e-06)
(4.99176 -5.28296e-06 1.05156e-06)
(4.99173 -5.18698e-06 1.00868e-06)
(4.9917 -5.09038e-06 9.6831e-07)
(4.99167 -4.99314e-06 9.28059e-07)
(4.99164 -4.89562e-06 8.90244e-07)
(4.99161 -4.79749e-06 8.52623e-07)
(4.99159 -4.69925e-06 8.1618e-07)
(4.99156 -4.6015e-06 7.82038e-07)
(4.99154 -4.50469e-06 7.46304e-07)
(4.99152 -4.40832e-06 7.15096e-07)
(4.9915 -4.31335e-06 6.80153e-07)
(4.99147 -4.21881e-06 6.51406e-07)
(4.99145 -4.1258e-06 6.17829e-07)
(4.99144 -4.03305e-06 5.90728e-07)
(4.99142 -3.94204e-06 5.58635e-07)
(4.9914 -3.85216e-06 5.32688e-07)
(4.99138 -3.7653e-06 5.01225e-07)
(4.99137 -3.67899e-06 4.75803e-07)
(4.99136 -3.59655e-06 4.43493e-07)
(4.99134 -3.51415e-06 4.21627e-07)
(4.99133 -3.43635e-06 3.77594e-07)
(4.99132 -3.35714e-06 3.71228e-07)
(4.99131 -3.28457e-06 2.85404e-07)
(4.9913 -3.20592e-06 3.3024e-07)
(4.99129 -3.14271e-06 1.22892e-07)
(4.99128 -3.05025e-06 3.61508e-07)
(4.99619 -7.06447e-06 7.911e-06)
(4.99592 -7.21467e-06 7.40537e-06)
(4.99567 -7.35627e-06 6.93915e-06)
(4.99544 -7.48913e-06 6.50889e-06)
(4.99522 -7.61304e-06 6.11203e-06)
(4.99502 -7.72802e-06 5.74796e-06)
(4.99483 -7.834e-06 5.41188e-06)
(4.99464 -7.93088e-06 5.09911e-06)
(4.99447 -8.01847e-06 4.81054e-06)
(4.99431 -8.09694e-06 4.54364e-06)
(4.99416 -8.16611e-06 4.29696e-06)
(4.99402 -8.22629e-06 4.06876e-06)
(4.99389 -8.27729e-06 3.85755e-06)
(4.99376 -8.3195e-06 3.66188e-06)
(4.99364 -8.35272e-06 3.48047e-06)
(4.99352 -8.37742e-06 3.31204e-06)
(4.99341 -8.39338e-06 3.15551e-06)
(4.99331 -8.40112e-06 3.00985e-06)
(4.99321 -8.4007e-06 2.87394e-06)
(4.99312 -8.39238e-06 2.74706e-06)
(4.99303 -8.37637e-06 2.62818e-06)
(4.99295 -8.35296e-06 2.5167e-06)
(4.99286 -8.32241e-06 2.41176e-06)
(4.99279 -8.28507e-06 2.31356e-06)
(4.99271 -8.24116e-06 2.22133e-06)
(4.99264 -8.19098e-06 2.13305e-06)
(4.99257 -8.13489e-06 2.04914e-06)
(4.99251 -8.07302e-06 1.96914e-06)
(4.99245 -8.00537e-06 1.8924e-06)
(4.99239 -7.93186e-06 1.81929e-06)
(4.99233 -7.85273e-06 1.74899e-06)
(4.99227 -7.76801e-06 1.6821e-06)
(4.99222 -7.67866e-06 1.6182e-06)
(4.99217 -7.58498e-06 1.55743e-06)
(4.99212 -7.48739e-06 1.49846e-06)
(4.99208 -7.38615e-06 1.44211e-06)
(4.99203 -7.2817e-06 1.38707e-06)
(4.99199 -7.17436e-06 1.33555e-06)
(4.99195 -7.06422e-06 1.28403e-06)
(4.99191 -6.95175e-06 1.23487e-06)
(4.99187 -6.8372e-06 1.18644e-06)
(4.99183 -6.72076e-06 1.1405e-06)
(4.9918 -6.60297e-06 1.09497e-06)
(4.99176 -6.48398e-06 1.05193e-06)
(4.99173 -6.36397e-06 1.00896e-06)
(4.9917 -6.24322e-06 9.68539e-07)
(4.99167 -6.12178e-06 9.28212e-07)
(4.99164 -6.00009e-06 8.90295e-07)
(4.99161 -5.87783e-06 8.5262e-07)
(4.99159 -5.75576e-06 8.16094e-07)
(4.99156 -5.63412e-06 7.81901e-07)
(4.99154 -5.51348e-06 7.4616e-07)
(4.99152 -5.39342e-06 7.1492e-07)
(4.9915 -5.2749e-06 6.79922e-07)
(4.99147 -5.15693e-06 6.51106e-07)
(4.99145 -5.04063e-06 6.17501e-07)
(4.99144 -4.92497e-06 5.90375e-07)
(4.99142 -4.8117e-06 5.58228e-07)
(4.9914 -4.69959e-06 5.32246e-07)
(4.99138 -4.591e-06 5.00757e-07)
(4.99137 -4.48301e-06 4.75333e-07)
(4.99136 -4.3796e-06 4.42977e-07)
(4.99134 -4.2761e-06 4.21048e-07)
(4.99133 -4.17816e-06 3.76987e-07)
(4.99132 -4.07871e-06 3.70561e-07)
(4.99131 -3.98787e-06 2.84677e-07)
(4.9913 -3.89029e-06 3.2947e-07)
(4.99129 -3.81229e-06 1.2219e-07)
(4.99128 -3.70049e-06 3.60579e-07)
(4.99619 -8.34777e-06 7.91788e-06)
(4.99592 -8.53258e-06 7.41212e-06)
(4.99567 -8.70691e-06 6.94576e-06)
(4.99544 -8.87056e-06 6.51536e-06)
(4.99522 -9.02328e-06 6.11834e-06)
(4.99502 -9.16499e-06 5.75413e-06)
(4.99482 -9.2957e-06 5.41785e-06)
(4.99464 -9.41515e-06 5.10492e-06)
(4.99447 -9.52323e-06 4.81615e-06)
(4.99431 -9.62004e-06 4.54907e-06)
(4.99416 -9.70547e-06 4.30217e-06)
(4.99402 -9.77977e-06 4.07381e-06)
(4.99388 -9.84282e-06 3.86239e-06)
(4.99376 -9.89503e-06 3.66652e-06)
(4.99364 -9.93627e-06 3.4849e-06)
(4.99352 -9.96701e-06 3.31629e-06)
(4.99341 -9.98711e-06 3.15954e-06)
(4.99331 -9.99709e-06 3.0137e-06)
(4.99321 -9.99713e-06 2.87757e-06)
(4.99312 -9.98747e-06 2.7505e-06)
(4.99303 -9.96848e-06 2.63142e-06)
(4.99294 -9.94047e-06 2.51977e-06)
(4.99286 -9.90379e-06 2.41459e-06)
(4.99279 -9.85887e-06 2.31621e-06)
(4.99271 -9.80602e-06 2.2238e-06)
(4.99264 -9.7456e-06 2.13532e-06)
(4.99257 -9.67801e-06 2.05124e-06)
(4.99251 -9.60331e-06 1.97104e-06)
(4.99245 -9.52157e-06 1.89412e-06)
(4.99239 -9.43275e-06 1.82085e-06)
(4.99233 -9.33719e-06 1.75039e-06)
(4.99227 -9.23497e-06 1.68336e-06)
(4.99222 -9.1272e-06 1.61931e-06)
(4.99217 -9.01419e-06 1.5584e-06)
(4.99212 -8.89649e-06 1.49929e-06)
(4.99208 -8.77448e-06 1.44278e-06)
(4.99203 -8.64864e-06 1.38762e-06)
(4.99199 -8.51944e-06 1.33599e-06)
(4.99195 -8.3869e-06 1.28437e-06)
(4.99191 -8.25161e-06 1.23511e-06)
(4.99187 -8.11386e-06 1.18657e-06)
(4.99183 -7.97387e-06 1.14051e-06)
(4.9918 -7.83217e-06 1.09486e-06)
(4.99176 -7.68903e-06 1.0517e-06)
(4.99173 -7.54473e-06 1.00867e-06)
(4.9917 -7.39961e-06 9.68157e-07)
(4.99167 -7.25375e-06 9.2776e-07)
(4.99164 -7.10769e-06 8.89743e-07)
(4.99161 -6.96104e-06 8.52052e-07)
(4.99159 -6.81462e-06 8.15373e-07)
(4.99156 -6.66861e-06 7.81118e-07)
(4.99154 -6.52367e-06 7.45278e-07)
(4.99152 -6.37943e-06 7.13953e-07)
(4.9915 -6.23693e-06 6.7897e-07)
(4.99147 -6.09509e-06 6.50164e-07)
(4.99145 -5.95524e-06 6.16556e-07)
(4.99144 -5.81618e-06 5.89351e-07)
(4.99142 -5.67988e-06 5.57153e-07)
(4.9914 -5.54471e-06 5.31091e-07)
(4.99138 -5.41366e-06 4.99571e-07)
(4.99137 -5.28329e-06 4.74087e-07)
(4.99136 -5.15832e-06 4.41805e-07)
(4.99134 -5.03327e-06 4.1992e-07)
(4.99133 -4.91491e-06 3.75849e-07)
(4.99132 -4.79479e-06 3.69456e-07)
(4.99131 -4.68524e-06 2.83473e-07)
(4.9913 -4.56748e-06 3.28143e-07)
(4.99129 -4.47382e-06 1.20871e-07)
(4.99128 -4.33943e-06 3.59027e-07)
(4.99619 -9.96533e-06 7.92495e-06)
(4.99592 -1.01819e-05 7.4191e-06)
(4.99567 -1.03853e-05 6.9526e-06)
(4.99544 -1.05754e-05 6.52208e-06)
(4.99522 -1.07518e-05 6.12492e-06)
(4.99502 -1.09146e-05 5.76057e-06)
(4.99482 -1.10639e-05 5.42413e-06)
(4.99464 -1.11992e-05 5.11104e-06)
(4.99447 -1.13207e-05 4.82207e-06)
(4.99431 -1.14283e-05 4.55481e-06)
(4.99416 -1.15223e-05 4.30772e-06)
(4.99402 -1.16025e-05 4.07916e-06)
(4.99388 -1.16694e-05 3.86752e-06)
(4.99376 -1.1723e-05 3.67145e-06)
(4.99364 -1.17636e-05 3.48962e-06)
(4.99352 -1.17914e-05 3.32082e-06)
(4.99341 -1.18069e-05 3.16386e-06)
(4.99331 -1.18102e-05 3.01781e-06)
(4.99321 -1.18017e-05 2.88149e-06)
(4.99312 -1.17818e-05 2.7542e-06)
(4.99303 -1.17509e-05 2.63492e-06)
(4.99294 -1.17094e-05 2.52304e-06)
(4.99286 -1.16578e-05 2.41765e-06)
(4.99279 -1.15966e-05 2.31904e-06)
(4.99271 -1.15262e-05 2.22644e-06)
(4.99264 -1.1447e-05 2.13777e-06)
(4.99257 -1.13596e-05 2.05348e-06)
(4.99251 -1.12639e-05 1.9731e-06)
(4.99245 -1.116e-05 1.89597e-06)
(4.99239 -1.1048e-05 1.82255e-06)
(4.99233 -1.09284e-05 1.75193e-06)
(4.99227 -1.08013e-05 1.68479e-06)
(4.99222 -1.0668e-05 1.62059e-06)
(4.99217 -1.05288e-05 1.55952e-06)
(4.99212 -1.03844e-05 1.50025e-06)
(4.99207 -1.02352e-05 1.4436e-06)
(4.99203 -1.00817e-05 1.38831e-06)
(4.99199 -9.92452e-06 1.33656e-06)
(4.99195 -9.76372e-06 1.28483e-06)
(4.99191 -9.59999e-06 1.23546e-06)
(4.99187 -9.43367e-06 1.1868e-06)
(4.99183 -9.26503e-06 1.14063e-06)
(4.9918 -9.09456e-06 1.09491e-06)
(4.99176 -8.92256e-06 1.05167e-06)
(4.99173 -8.74942e-06 1.00856e-06)
(4.9917 -8.57553e-06 9.67939e-07)
(4.99167 -8.40104e-06 9.275e-07)
(4.99164 -8.22656e-06 8.89409e-07)
(4.99161 -8.0517e-06 8.51653e-07)
(4.99159 -7.87743e-06 8.14938e-07)
(4.99156 -7.70376e-06 7.80638e-07)
(4.99154 -7.53142e-06 7.44735e-07)
(4.99152 -7.36004e-06 7.13354e-07)
(4.9915 -7.19067e-06 6.7836e-07)
(4.99147 -7.02229e-06 6.49475e-07)
(4.99145 -6.85649e-06 6.1584e-07)
(4.99144 -6.69171e-06 5.8861e-07)
(4.99142 -6.53043e-06 5.56397e-07)
(4.9914 -6.37035e-06 5.30346e-07)
(4.99138 -6.21516e-06 4.98803e-07)
(4.99137 -6.06075e-06 4.73311e-07)
(4.99136 -5.91266e-06 4.40989e-07)
(4.99134 -5.7646e-06 4.19073e-07)
(4.99133 -5.62467e-06 3.74979e-07)
(4.99132 -5.48279e-06 3.68533e-07)
(4.99131 -5.35392e-06 2.82573e-07)
(4.9913 -5.21522e-06 3.27196e-07)
(4.99129 -5.10517e-06 1.19984e-07)
(4.99128 -4.94675e-06 3.57944e-07)
(4.99619 -1.16605e-05 7.93376e-06)
(4.99592 -1.19062e-05 7.42769e-06)
(4.99567 -1.21363e-05 6.96101e-06)
(4.99544 -1.23504e-05 6.53026e-06)
(4.99522 -1.25484e-05 6.13289e-06)
(4.99502 -1.273e-05 5.7683e-06)
(4.99482 -1.28956e-05 5.4316e-06)
(4.99464 -1.30446e-05 5.11824e-06)
(4.99447 -1.31773e-05 4.82904e-06)
(4.99431 -1.32936e-05 4.5615e-06)
(4.99416 -1.33939e-05 4.31416e-06)
(4.99402 -1.3478e-05 4.08531e-06)
(4.99388 -1.35465e-05 3.87344e-06)
(4.99376 -1.35994e-05 3.67708e-06)
(4.99363 -1.36372e-05 3.495e-06)
(4.99352 -1.366e-05 3.32588e-06)
(4.99341 -1.36687e-05 3.16868e-06)
(4.99331 -1.36631e-05 3.02237e-06)
(4.99321 -1.36439e-05 2.88578e-06)
(4.99312 -1.36116e-05 2.75822e-06)
(4.99303 -1.35666e-05 2.63867e-06)
(4.99294 -1.35095e-05 2.52658e-06)
(4.99286 -1.34408e-05 2.42092e-06)
(4.99278 -1.33612e-05 2.32204e-06)
(4.99271 -1.32711e-05 2.2292e-06)
(4.99264 -1.31711e-05 2.14028e-06)
(4.99257 -1.30617e-05 2.05574e-06)
(4.99251 -1.29428e-05 1.97512e-06)
(4.99244 -1.28148e-05 1.8978e-06)
(4.99238 -1.26777e-05 1.82417e-06)
(4.99233 -1.25322e-05 1.75334e-06)
(4.99227 -1.23785e-05 1.68605e-06)
(4.99222 -1.22178e-05 1.62166e-06)
(4.99217 -1.20507e-05 1.56041e-06)
(4.99212 -1.18779e-05 1.501e-06)
(4.99207 -1.16999e-05 1.44421e-06)
(4.99203 -1.15173e-05 1.38875e-06)
(4.99199 -1.13306e-05 1.33685e-06)
(4.99195 -1.11401e-05 1.285e-06)
(4.99191 -1.09466e-05 1.23546e-06)
(4.99187 -1.07503e-05 1.18671e-06)
(4.99183 -1.05516e-05 1.14041e-06)
(4.9918 -1.03511e-05 1.09458e-06)
(4.99176 -1.01491e-05 1.05123e-06)
(4.99173 -9.94597e-06 1.00801e-06)
(4.9917 -9.7422e-06 9.67328e-07)
(4.99167 -9.53805e-06 9.26785e-07)
(4.99164 -9.33411e-06 8.88581e-07)
(4.99161 -9.13006e-06 8.50783e-07)
(4.99159 -8.92688e-06 8.13937e-07)
(4.99156 -8.72461e-06 7.79561e-07)
(4.99154 -8.52403e-06 7.43611e-07)
(4.99152 -8.32472e-06 7.12135e-07)
(4.99149 -8.12785e-06 6.77093e-07)
(4.99147 -7.93225e-06 6.48153e-07)
(4.99145 -7.73986e-06 6.14504e-07)
(4.99144 -7.54864e-06 5.87209e-07)
(4.99142 -7.36164e-06 5.54947e-07)
(4.9914 -7.17595e-06 5.28808e-07)
(4.99138 -6.99605e-06 4.9727e-07)
(4.99137 -6.81705e-06 4.71752e-07)
(4.99136 -6.64544e-06 4.3943e-07)
(4.99134 -6.47393e-06 4.17498e-07)
(4.99133 -6.31188e-06 3.73398e-07)
(4.99132 -6.14755e-06 3.66972e-07)
(4.99131 -5.99844e-06 2.81011e-07)
(4.9913 -5.83776e-06 3.25623e-07)
(4.99129 -5.71054e-06 1.18516e-07)
(4.99128 -5.52659e-06 3.56282e-07)
(4.99647 -1.33883e-05 8.49299e-06)
(4.99618 -1.36802e-05 7.94352e-06)
(4.99592 -1.39534e-05 7.43724e-06)
(4.99567 -1.42076e-05 6.97036e-06)
(4.99544 -1.44425e-05 6.53934e-06)
(4.99522 -1.4658e-05 6.14174e-06)
(4.99501 -1.4854e-05 5.77688e-06)
(4.99482 -1.50307e-05 5.43991e-06)
(4.99464 -1.51879e-05 5.12625e-06)
(4.99447 -1.53256e-05 4.83677e-06)
(4.99431 -1.54441e-05 4.56893e-06)
(4.99416 -1.55436e-05 4.32131e-06)
(4.99402 -1.56244e-05 4.09215e-06)
(4.99388 -1.56868e-05 3.87997e-06)
(4.99375 -1.57312e-05 3.6833e-06)
(4.99363 -1.57581e-05 3.5009e-06)
(4.99352 -1.57679e-05 3.33148e-06)
(4.99341 -1.5761e-05 3.174e-06)
(4.99331 -1.57381e-05 3.02738e-06)
(4.99321 -1.56997e-05 2.89047e-06)
(4.99312 -1.56464e-05 2.76265e-06)
(4.99303 -1.55787e-05 2.64282e-06)
(4.99294 -1.54973e-05 2.53043e-06)
(4.99286 -1.54029e-05 2.42444e-06)
(4.99278 -1.52963e-05 2.32531e-06)
(4.99271 -1.51779e-05 2.2322e-06)
(4.99264 -1.50485e-05 2.14302e-06)
(4.99257 -1.49088e-05 2.05821e-06)
(4.99251 -1.47586e-05 1.97734e-06)
(4.99244 -1.45984e-05 1.89976e-06)
(4.99238 -1.44284e-05 1.8259e-06)
(4.99233 -1.42494e-05 1.75487e-06)
(4.99227 -1.40616e-05 1.68741e-06)
(4.99222 -1.38664e-05 1.62283e-06)
(4.99217 -1.36644e-05 1.5614e-06)
(4.99212 -1.34564e-05 1.50182e-06)
(4.99207 -1.3243e-05 1.44486e-06)
(4.99203 -1.30247e-05 1.38924e-06)
(4.99199 -1.28024e-05 1.33718e-06)
(4.99195 -1.25762e-05 1.2852e-06)
(4.99191 -1.2347e-05 1.23553e-06)
(4.99187 -1.21152e-05 1.18664e-06)
(4.99183 -1.18812e-05 1.14022e-06)
(4.9918 -1.16456e-05 1.09427e-06)
(4.99176 -1.14087e-05 1.0508e-06)
(4.99173 -1.11711e-05 1.00751e-06)
(4.9917 -1.09329e-05 9.66723e-07)
(4.99167 -1.06949e-05 9.26135e-07)
(4.99164 -1.04574e-05 8.8784e-07)
(4.99161 -1.02203e-05 8.49968e-07)
(4.99159 -9.98459e-06 8.13081e-07)
(4.99156 -9.75034e-06 7.78649e-07)
(4.99154 -9.51829e-06 7.42627e-07)
(4.99152 -9.28796e-06 7.11118e-07)
(4.99149 -9.0607e-06 6.76019e-07)
(4.99147 -8.8351e-06 6.47048e-07)
(4.99145 -8.61347e-06 6.13368e-07)
(4.99144 -8.39332e-06 5.8606e-07)
(4.99142 -8.1783e-06 5.538e-07)
(4.9914 -7.96494e-06 5.27631e-07)
(4.99138 -7.75838e-06 4.96077e-07)
(4.99137 -7.55296e-06 4.7053e-07)
(4.99136 -7.3561e-06 4.38223e-07)
(4.99134 -7.15945e-06 4.16243e-07)
(4.99133 -6.97375e-06 3.72141e-07)
(4.99132 -6.78551e-06 3.65679e-07)
(4.99131 -6.61491e-06 2.7974e-07)
(4.9913 -6.43093e-06 3.24284e-07)
(4.99129 -6.28549e-06 1.17287e-07)
(4.99128 -6.07458e-06 3.54824e-07)
(4.99647 -1.55643e-05 8.50439e-06)
(4.99618 -1.58812e-05 7.95466e-06)
(4.99592 -1.61759e-05 7.4481e-06)
(4.99567 -1.64482e-05 6.98091e-06)
(4.99544 -1.66978e-05 6.5496e-06)
(4.99522 -1.69247e-05 6.15165e-06)
(4.99501 -1.71288e-05 5.78647e-06)
(4.99482 -1.73104e-05 5.44913e-06)
(4.99464 -1.74693e-05 5.13515e-06)
(4.99447 -1.76058e-05 4.84527e-06)
(4.99431 -1.77202e-05 4.57711e-06)
(4.99416 -1.78128e-05 4.3291e-06)
(4.99402 -1.78839e-05 4.09959e-06)
(4.99388 -1.79342e-05 3.88704e-06)
(4.99375 -1.7964e-05 3.69002e-06)
(4.99363 -1.7974e-05 3.50724e-06)
(4.99352 -1.79647e-05 3.33745e-06)
(4.99341 -1.79368e-05 3.17962e-06)
(4.99331 -1.78909e-05 3.03265e-06)
(4.99321 -1.78276e-05 2.8954e-06)
(4.99312 -1.77478e-05 2.76721e-06)
(4.99303 -1.7652e-05 2.64706e-06)
(4.99294 -1.75412e-05 2.53436e-06)
(4.99286 -1.7416e-05 2.42803e-06)
(4.99278 -1.72774e-05 2.32854e-06)
(4.99271 -1.7126e-05 2.23516e-06)
(4.99264 -1.69625e-05 2.14568e-06)
(4.99257 -1.67878e-05 2.06054e-06)
(4.99251 -1.66018e-05 1.97938e-06)
(4.99244 -1.64052e-05 1.90152e-06)
(4.99238 -1.61982e-05 1.82742e-06)
(4.99233 -1.59817e-05 1.75617e-06)
(4.99227 -1.57562e-05 1.68851e-06)
(4.99222 -1.5523e-05 1.62371e-06)
(4.99217 -1.52827e-05 1.56208e-06)
(4.99212 -1.50364e-05 1.5023e-06)
(4.99207 -1.47844e-05 1.44516e-06)
(4.99203 -1.45277e-05 1.38938e-06)
(4.99199 -1.42669e-05 1.33711e-06)
(4.99194 -1.40023e-05 1.285e-06)
(4.9919 -1.37349e-05 1.23515e-06)
(4.99187 -1.34652e-05 1.18611e-06)
(4.99183 -1.31935e-05 1.13954e-06)
(4.9918 -1.29207e-05 1.09346e-06)
(4.99176 -1.26469e-05 1.04987e-06)
(4.99173 -1.23727e-05 1.00645e-06)
(4.9917 -1.20985e-05 9.65563e-07)
(4.99167 -1.18249e-05 9.24894e-07)
(4.99164 -1.15524e-05 8.86464e-07)
(4.99161 -1.12808e-05 8.48546e-07)
(4.99159 -1.10112e-05 8.11537e-07)
(4.99156 -1.07437e-05 7.77053e-07)
(4.99154 -1.0479e-05 7.40975e-07)
(4.99152 -1.02166e-05 7.09385e-07)
(4.99149 -9.95792e-06 6.74231e-07)
(4.99147 -9.70134e-06 6.4518e-07)
(4.99145 -9.4496e-06 6.11439e-07)
(4.99144 -9.19969e-06 5.84109e-07)
(4.99142 -8.95593e-06 5.51802e-07)
(4.9914 -8.71418e-06 5.25571e-07)
(4.99138 -8.48037e-06 4.93989e-07)
(4.99137 -8.24799e-06 4.68368e-07)
(4.99136 -8.02548e-06 4.36042e-07)
(4.99134 -7.8033e-06 4.14072e-07)
(4.99133 -7.59367e-06 3.69955e-07)
(4.99132 -7.38119e-06 3.63525e-07)
(4.99131 -7.18876e-06 2.77608e-07)
(4.9913 -6.98105e-06 3.22117e-07)
(4.99129 -6.8171e-06 1.15284e-07)
(4.99128 -6.5785e-06 3.52552e-07)
(4.99677 -1.77604e-05 9.11488e-06)
(4.99647 -1.81265e-05 8.51738e-06)
(4.99618 -1.84665e-05 7.96732e-06)
(4.99592 -1.878e-05 7.46043e-06)
(4.99567 -1.90667e-05 6.99288e-06)
(4.99543 -1.93267e-05 6.56117e-06)
(4.99522 -1.95596e-05 6.16283e-06)
(4.99501 -1.9766e-05 5.79727e-06)
(4.99482 -1.9946e-05 5.45951e-06)
(4.99464 -2.00996e-05 5.14507e-06)
(4.99447 -2.02273e-05 4.8548e-06)
(4.99431 -2.03294e-05 4.58617e-06)
(4.99416 -2.04065e-05 4.33774e-06)
(4.99401 -2.04593e-05 4.1078e-06)
(4.99388 -2.04881e-05 3.89481e-06)
(4.99375 -2.04939e-05 3.69736e-06)
(4.99363 -2.04772e-05 3.51418e-06)
(4.99352 -2.0439e-05 3.344e-06)
(4.99341 -2.03798e-05 3.18572e-06)
(4.99331 -2.03007e-05 3.03837e-06)
(4.99321 -2.02024e-05 2.90071e-06)
(4.99311 -2.00858e-05 2.77213e-06)
(4.99303 -1.99517e-05 2.6516e-06)
(4.99294 -1.98011e-05 2.53852e-06)
(4.99286 -1.96348e-05 2.43183e-06)
(4.99278 -1.94541e-05 2.33198e-06)
(4.99271 -1.92595e-05 2.23825e-06)
(4.99264 -1.9052e-05 2.14841e-06)
(4.99257 -1.88324e-05 2.06296e-06)
(4.9925 -1.86011e-05 1.98147e-06)
(4.99244 -1.83586e-05 1.90334e-06)
(4.99238 -1.81055e-05 1.82894e-06)
(4.99233 -1.78426e-05 1.75744e-06)
(4.99227 -1.75707e-05 1.68954e-06)
(4.99222 -1.72911e-05 1.62452e-06)
(4.99217 -1.70046e-05 1.5627e-06)
(4.99212 -1.6712e-05 1.50268e-06)
(4.99207 -1.64139e-05 1.44534e-06)
(4.99203 -1.61113e-05 1.38938e-06)
(4.99199 -1.5805e-05 1.33694e-06)
(4.99194 -1.54952e-05 1.28467e-06)
(4.9919 -1.5183e-05 1.23468e-06)
(4.99187 -1.48689e-05 1.1855e-06)
(4.99183 -1.45536e-05 1.1388e-06)
(4.9918 -1.42377e-05 1.09258e-06)
(4.99176 -1.39214e-05 1.04888e-06)
(4.99173 -1.36055e-05 1.00538e-06)
(4.9917 -1.32902e-05 9.64365e-07)
(4.99167 -1.29763e-05 9.236e-07)
(4.99164 -1.26642e-05 8.85086e-07)
(4.99161 -1.23539e-05 8.47158e-07)
(4.99159 -1.20464e-05 8.10069e-07)
(4.99156 -1.17419e-05 7.75524e-07)
(4.99154 -1.14409e-05 7.39385e-07)
(4.99152 -1.11429e-05 7.07733e-07)
(4.99149 -1.08495e-05 6.72531e-07)
(4.99147 -1.05589e-05 6.43427e-07)
(4.99145 -1.02742e-05 6.09688e-07)
(4.99144 -9.99187e-06 5.82341e-07)
(4.99142 -9.71683e-06 5.50038e-07)
(4.9914 -9.44425e-06 5.23833e-07)
(4.99138 -9.18095e-06 4.92229e-07)
(4.99137 -8.91947e-06 4.66643e-07)
(4.99136 -8.66932e-06 4.34291e-07)
(4.99134 -8.41976e-06 4.12322e-07)
(4.99133 -8.18452e-06 3.68206e-07)
(4.99132 -7.94621e-06 3.61767e-07)
(4.99131 -7.73065e-06 2.75876e-07)
(4.9913 -7.49789e-06 3.20323e-07)
(4.99129 -7.31451e-06 1.13614e-07)
(4.99128 -7.04666e-06 3.50564e-07)
(5.16008 -2.88639e-07 0.000449138)
(5.13289 -7.26208e-07 0.0013385)
(5.10259 -1.18754e-06 0.00130592)
(5.07897 -1.64705e-06 0.000939574)
(5.06232 -2.08935e-06 0.000603429)
(5.05058 -2.56524e-06 0.000384334)
(5.04199 -3.08073e-06 0.000260033)
(5.03544 -3.63344e-06 0.000189062)