/*--------------------------------*- C++ -*----------------------------------*\
| =========                 |                                                 |
| \\      /  F ield         | OpenFOAM: The Open Source CFD Toolbox           |
|  \\    /   O peration     | Version:  5.x                                   |
|   \\  /    A nd           | Web:      www.OpenFOAM.org                      |
|    \\/     M anipulation  |                                                 |
\*---------------------------------------------------------------------------*/
FoamFile
{
    version     2.0;
    format      ascii;
    class       volScalarField;
    location    "0";
    object      alphat;
}
// * * * * * * * * * * * * * * * * * * * * * * * * * * * * * * * * * * * * * //

dimensions      [1 -1 -1 0 0 0 0];

internalField   nonuniform List<scalar> 
103200
(
0.010601
0.00351794
0.00352552
0.0035333
0.00354005
0.0035458
0.00355076
0.0035551
0.00355895
0.0035624
0.00356552
0.00356837
0.00357098
0.0035734
0.00357564
0.00357772
0.00357967
0.00358149
0.00358321
0.00358483
0.00358636
0.00358781
0.00358918
0.00359049
0.00359173
0.00359292
0.00359405
0.00359514
0.00359618
0.00359718
0.00359814
0.00359906
0.00359995
0.00360081
0.00360163
0.00360243
0.00360321
0.00360396
0.00360468
0.00360538
0.00360607
0.00360673
0.00360737
0.003608
0.00360861
0.00360921
0.00360978
0.00361035
0.0036109
0.00361143
0.00361196
0.00361247
0.00361297
0.00361346
0.00361394
0.0036144
0.00361486
0.0036153
0.00361574
0.00361617
0.00361659
0.003617
0.0036174
0.00361779
0.00361818
0.00361856
0.00361893
0.00361929
0.00361965
0.00361999
0.00362034
0.00362067
0.003621
0.00362132
0.00362164
0.00362195
0.00362225
0.00362255
0.00362284
0.00362312
0.00362341
0.00362368
0.00362395
0.00362421
0.00362447
0.00362473
0.00362498
0.00362522
0.00362546
0.0036257
0.00362593
0.00362616
0.00362638
0.0036266
0.00362681
0.00362702
0.00362722
0.00362742
0.00362762
0.00362781
0.003628
0.00362819
0.00362837
0.00362855
0.00362872
0.00362889
0.00362906
0.00362923
0.00362939
0.00362954
0.0036297
0.00362985
0.00363
0.00363014
0.00363028
0.00363042
0.00363056
0.00363069
0.00363082
0.00363094
0.00363107
0.00363119
0.0036313
0.00363142
0.00363153
0.00363163
0.00363174
0.00363184
0.00363194
0.00363203
0.00363212
0.00363221
0.0036323
0.00363238
0.00363245
0.00363253
0.0036326
0.00363266
0.00363272
0.00363278
0.00363283
0.00363288
0.00363292
0.00363295
0.00363298
0.003633
0.00363301
0.00363301
0.003633
0.003633
0.0284592
0.0177095
0.0172211
0.0169958
0.0168712
0.0167947
0.0167447
0.0167105
0.0166866
0.0166695
0.0166571
0.0166482
0.0166419
0.0166374
0.0166343
0.0166324
0.0166314
0.016631
0.0166312
0.0166318
0.0166327
0.0166339
0.0166353
0.0166369
0.0166386
0.0166404
0.0166423
0.0166442
0.0166462
0.0166482
0.0166502
0.0166523
0.0166543
0.0166563
0.0166584
0.0166604
0.0166624
0.0166644
0.0166664
0.0166683
0.0166702
0.0166721
0.016674
0.0166759
0.0166777
0.0166795
0.0166813
0.0166831
0.0166848
0.0166865
0.0166882
0.0166899
0.0166916
0.0166932
0.0166948
0.0166963
0.0166979
0.0166994
0.0167009
0.0167024
0.0167039
0.0167053
0.0167067
0.0167081
0.0167095
0.0167108
0.0167122
0.0167135
0.0167148
0.016716
0.0167173
0.0167185
0.0167197
0.0167209
0.0167221
0.0167233
0.0167244
0.0167255
0.0167266
0.0167277
0.0167288
0.0167298
0.0167309
0.0167319
0.0167329
0.0167339
0.0167348
0.0167358
0.0167367
0.0167376
0.0167386
0.0167395
0.0167403
0.0167412
0.016742
0.0167429
0.0167437
0.0167445
0.0167453
0.0167461
0.0167469
0.0167476
0.0167484
0.0167491
0.0167498
0.0167505
0.0167512
0.0167519
0.0167526
0.0167533
0.0167539
0.0167546
0.0167552
0.0167558
0.0167565
0.0167571
0.0167577
0.0167582
0.0167588
0.0167594
0.0167599
0.0167605
0.016761
0.0167615
0.016762
0.0167625
0.016763
0.0167635
0.016764
0.0167645
0.0167649
0.0167654
0.0167658
0.0167662
0.0167666
0.0167671
0.0167674
0.0167678
0.0167682
0.0167686
0.0167689
0.0167693
0.0167696
0.0167699
0.0167703
0.0167706
0.0167708
0.0167711
0.0167714
0.0167716
0.0485547
0.0361898
0.0349542
0.0341979
0.0336988
0.03335
0.0330953
0.0329027
0.0327532
0.0326347
0.0325391
0.0324608
0.032396
0.0323418
0.0322961
0.0322573
0.0322241
0.0321956
0.0321711
0.0321498
0.0321314
0.0321153
0.0321013
0.032089
0.0320782
0.0320688
0.0320606
0.0320533
0.0320469
0.0320413
0.0320364
0.0320322
0.0320284
0.0320252
0.0320223
0.0320199
0.0320178
0.032016
0.0320145
0.0320133
0.0320123
0.0320115
0.0320108
0.0320104
0.0320101
0.0320099
0.0320099
0.03201
0.0320101
0.0320104
0.0320108
0.0320112
0.0320117
0.0320123
0.0320129
0.0320136
0.0320143
0.0320151
0.0320159
0.0320168
0.0320177
0.0320186
0.0320195
0.0320204
0.0320214
0.0320224
0.0320234
0.0320244
0.0320255
0.0320265
0.0320276
0.0320286
0.0320297
0.0320307
0.0320318
0.0320329
0.0320339
0.032035
0.0320361
0.0320371
0.0320382
0.0320393
0.0320403
0.0320414
0.0320424
0.0320435
0.0320445
0.0320455
0.0320466
0.0320476
0.0320486
0.0320496
0.0320506
0.0320516
0.0320526
0.0320536
0.0320545
0.0320555
0.0320564
0.0320574
0.0320583
0.0320593
0.0320602
0.0320611
0.032062
0.0320629
0.0320638
0.0320647
0.0320655
0.0320664
0.0320673
0.0320681
0.032069
0.0320698
0.0320706
0.0320715
0.0320723
0.0320731
0.0320739
0.0320747
0.0320755
0.0320763
0.032077
0.0320778
0.0320786
0.0320793
0.03208
0.0320808
0.0320815
0.0320822
0.0320829
0.0320837
0.0320843
0.032085
0.0320857
0.0320864
0.0320871
0.0320877
0.0320884
0.032089
0.0320897
0.0320903
0.032091
0.0320916
0.0320922
0.0320929
0.0320935
0.0320942
0.0320948
0.0320954
0.0699824
0.057573
0.0561117
0.0549364
0.0540289
0.0533264
0.0527741
0.0523321
0.0519725
0.0516755
0.051427
0.0512169
0.0510375
0.050883
0.0507489
0.0506318
0.050529
0.0504382
0.0503576
0.0502859
0.0502218
0.0501642
0.0501124
0.0500656
0.0500233
0.0499848
0.0499499
0.049918
0.0498889
0.0498622
0.0498378
0.0498154
0.0497947
0.0497757
0.0497582
0.049742
0.049727
0.0497132
0.0497003
0.0496884
0.0496774
0.0496671
0.0496576
0.0496487
0.0496405
0.0496328
0.0496256
0.049619
0.0496128
0.049607
0.0496016
0.0495966
0.0495919
0.0495875
0.0495834
0.0495796
0.0495761
0.0495728
0.0495697
0.0495668
0.0495642
0.0495617
0.0495594
0.0495572
0.0495552
0.0495534
0.0495516
0.04955
0.0495486
0.0495472
0.0495459
0.0495448
0.0495437
0.0495427
0.0495418
0.049541
0.0495403
0.0495396
0.049539
0.0495384
0.049538
0.0495375
0.0495371
0.0495368
0.0495365
0.0495363
0.0495361
0.049536
0.0495358
0.0495358
0.0495357
0.0495357
0.0495357
0.0495358
0.0495359
0.049536
0.0495361
0.0495362
0.0495364
0.0495366
0.0495368
0.0495371
0.0495373
0.0495376
0.0495379
0.0495382
0.0495385
0.0495388
0.0495392
0.0495396
0.04954
0.0495404
0.0495408
0.0495412
0.0495417
0.0495422
0.0495426
0.0495431
0.0495436
0.0495441
0.0495447
0.0495452
0.0495458
0.0495463
0.0495469
0.0495475
0.0495481
0.0495486
0.0495492
0.0495499
0.0495505
0.0495511
0.0495517
0.0495524
0.049553
0.0495537
0.0495543
0.049555
0.0495556
0.0495563
0.049557
0.0495577
0.0495585
0.0495592
0.04956
0.0495608
0.0495616
0.0495625
0.0495633
0.0495643
0.0929216
0.0808792
0.079829
0.0786094
0.0774731
0.076487
0.0756488
0.0749384
0.0743339
0.0738162
0.0733697
0.072982
0.072643
0.0723449
0.0720813
0.071847
0.0716377
0.07145
0.071281
0.0711283
0.0709898
0.070864
0.0707491
0.0706442
0.0705479
0.0704595
0.0703781
0.0703029
0.0702335
0.0701691
0.0701094
0.0700539
0.0700023
0.0699541
0.0699092
0.0698672
0.0698278
0.069791
0.0697564
0.0697239
0.0696934
0.0696646
0.0696375
0.069612
0.0695879
0.0695651
0.0695436
0.0695232
0.069504
0.0694857
0.0694684
0.069452
0.0694364
0.0694216
0.0694075
0.0693941
0.0693814
0.0693692
0.0693577
0.0693467
0.0693362
0.0693262
0.0693166
0.0693075
0.0692988
0.0692904
0.0692825
0.0692749
0.0692676
0.0692606
0.0692539
0.0692475
0.0692414
0.0692355
0.0692299
0.0692245
0.0692194
0.0692144
0.0692097
0.0692051
0.0692008
0.0691966
0.0691926
0.0691887
0.069185
0.0691814
0.069178
0.0691748
0.0691716
0.0691686
0.0691657
0.069163
0.0691603
0.0691578
0.0691553
0.069153
0.0691507
0.0691485
0.0691465
0.0691445
0.0691426
0.0691408
0.069139
0.0691374
0.0691358
0.0691343
0.0691328
0.0691315
0.0691302
0.0691289
0.0691278
0.0691267
0.0691257
0.0691247
0.0691238
0.069123
0.0691222
0.0691214
0.0691208
0.0691202
0.0691196
0.0691191
0.0691186
0.0691182
0.0691179
0.0691176
0.0691173
0.0691171
0.0691169
0.0691167
0.0691166
0.0691166
0.0691165
0.0691165
0.0691166
0.0691167
0.0691168
0.0691169
0.0691171
0.0691174
0.0691176
0.0691179
0.0691183
0.0691187
0.0691192
0.0691197
0.0691203
0.069121
0.0691218
0.0691228
0.117739
0.10584
0.105614
0.104764
0.103694
0.102611
0.101599
0.100681
0.0998605
0.0991291
0.0984777
0.0978966
0.0973767
0.0969101
0.0964899
0.0961103
0.0957663
0.0954536
0.0951685
0.0949078
0.0946689
0.0944494
0.0942472
0.0940606
0.093888
0.093728
0.0935795
0.0934413
0.0933126
0.0931925
0.0930803
0.0929752
0.0928767
0.0927842
0.0926973
0.0926156
0.0925386
0.0924659
0.0923973
0.0923325
0.0922712
0.0922131
0.0921581
0.0921058
0.0920562
0.0920091
0.0919643
0.0919216
0.091881
0.0918423
0.0918053
0.09177
0.0917364
0.0917042
0.0916734
0.0916439
0.0916157
0.0915887
0.0915628
0.0915379
0.0915141
0.0914912
0.0914692
0.0914481
0.0914278
0.0914082
0.0913894
0.0913713
0.0913539
0.0913371
0.0913209
0.0913053
0.0912903
0.0912757
0.0912617
0.0912482
0.0912351
0.0912225
0.0912103
0.0911985
0.0911872
0.0911762
0.0911655
0.0911552
0.0911453
0.0911356
0.0911263
0.0911173
0.0911086
0.0911001
0.0910919
0.091084
0.0910763
0.0910689
0.0910617
0.0910547
0.091048
0.0910414
0.0910351
0.0910289
0.091023
0.0910172
0.0910116
0.0910062
0.091001
0.0909959
0.090991
0.0909863
0.0909817
0.0909774
0.0909731
0.090969
0.0909651
0.0909613
0.0909576
0.0909541
0.0909508
0.0909476
0.0909445
0.0909415
0.0909386
0.0909359
0.0909333
0.0909308
0.0909285
0.0909262
0.090924
0.090922
0.09092
0.0909182
0.0909164
0.0909148
0.0909132
0.0909117
0.0909103
0.090909
0.0909078
0.0909067
0.0909056
0.0909047
0.0909038
0.090903
0.0909023
0.0909017
0.0909012
0.0909008
0.0909005
0.0909004
0.0909004
0.0909009
0.144809
0.132568
0.133296
0.133124
0.132427
0.131493
0.130487
0.129491
0.128542
0.127655
0.126836
0.126082
0.12539
0.124756
0.124173
0.123638
0.123146
0.122692
0.122273
0.121886
0.121527
0.121194
0.120884
0.120596
0.120328
0.120077
0.119842
0.119623
0.119417
0.119223
0.119041
0.11887
0.118708
0.118556
0.118412
0.118276
0.118147
0.118025
0.117909
0.117799
0.117694
0.117595
0.1175
0.11741
0.117324
0.117242
0.117164
0.117089
0.117017
0.116949
0.116883
0.116821
0.11676
0.116703
0.116647
0.116594
0.116543
0.116494
0.116446
0.116401
0.116357
0.116315
0.116274
0.116235
0.116197
0.11616
0.116125
0.116091
0.116058
0.116026
0.115995
0.115966
0.115937
0.115909
0.115882
0.115856
0.11583
0.115806
0.115782
0.115759
0.115737
0.115715
0.115694
0.115673
0.115654
0.115634
0.115616
0.115597
0.11558
0.115563
0.115546
0.11553
0.115514
0.115499
0.115484
0.11547
0.115456
0.115442
0.115429
0.115416
0.115403
0.115391
0.115379
0.115368
0.115356
0.115346
0.115335
0.115325
0.115315
0.115305
0.115296
0.115287
0.115278
0.115269
0.115261
0.115253
0.115246
0.115238
0.115231
0.115224
0.115217
0.115211
0.115204
0.115198
0.115192
0.115187
0.115181
0.115176
0.115171
0.115166
0.115161
0.115157
0.115153
0.115148
0.115144
0.115141
0.115137
0.115133
0.11513
0.115127
0.115124
0.115121
0.115118
0.115116
0.115113
0.115111
0.115109
0.115107
0.115105
0.115104
0.174474
0.161371
0.162954
0.163606
0.16352
0.162978
0.162188
0.161283
0.16034
0.159401
0.158492
0.157623
0.156802
0.156029
0.155303
0.154625
0.153989
0.153395
0.15284
0.152319
0.151832
0.151375
0.150947
0.150545
0.150166
0.14981
0.149475
0.149159
0.14886
0.148578
0.148312
0.148059
0.14782
0.147593
0.147378
0.147173
0.146978
0.146793
0.146617
0.146449
0.146288
0.146135
0.145989
0.145849
0.145715
0.145587
0.145464
0.145347
0.145234
0.145125
0.145021
0.144921
0.144825
0.144733
0.144644
0.144558
0.144476
0.144396
0.144319
0.144245
0.144174
0.144105
0.144038
0.143974
0.143911
0.143851
0.143792
0.143736
0.143681
0.143628
0.143577
0.143527
0.143479
0.143432
0.143386
0.143342
0.143299
0.143258
0.143217
0.143178
0.14314
0.143103
0.143067
0.143032
0.142997
0.142964
0.142932
0.142901
0.14287
0.14284
0.142811
0.142783
0.142756
0.142729
0.142703
0.142677
0.142653
0.142629
0.142605
0.142582
0.14256
0.142538
0.142517
0.142496
0.142476
0.142457
0.142438
0.142419
0.142401
0.142384
0.142366
0.14235
0.142334
0.142318
0.142303
0.142288
0.142274
0.14226
0.142246
0.142233
0.142221
0.142208
0.142196
0.142185
0.142173
0.142162
0.142152
0.142142
0.142132
0.142122
0.142113
0.142104
0.142095
0.142087
0.142079
0.142071
0.142063
0.142056
0.142049
0.142042
0.142035
0.142029
0.142023
0.142017
0.142011
0.142006
0.142001
0.141996
0.141991
0.141988
0.207064
0.192635
0.194841
0.196303
0.196958
0.196996
0.19662
0.19599
0.195211
0.194355
0.193466
0.192574
0.191696
0.190843
0.190021
0.189235
0.188484
0.18777
0.187092
0.186449
0.185839
0.185261
0.184713
0.184193
0.1837
0.183233
0.182789
0.182368
0.181967
0.181586
0.181224
0.180879
0.180551
0.180238
0.179939
0.179654
0.179382
0.179121
0.178872
0.178634
0.178406
0.178188
0.177978
0.177777
0.177584
0.177399
0.177221
0.17705
0.176885
0.176727
0.176574
0.176427
0.176285
0.176148
0.176017
0.175889
0.175766
0.175647
0.175533
0.175421
0.175314
0.17521
0.175109
0.175012
0.174917
0.174826
0.174737
0.174651
0.174567
0.174486
0.174407
0.174331
0.174256
0.174184
0.174114
0.174045
0.173979
0.173914
0.173852
0.17379
0.173731
0.173673
0.173616
0.173561
0.173508
0.173456
0.173405
0.173355
0.173307
0.17326
0.173214
0.173169
0.173126
0.173083
0.173041
0.173001
0.172961
0.172923
0.172885
0.172848
0.172812
0.172777
0.172743
0.17271
0.172677
0.172645
0.172614
0.172584
0.172555
0.172526
0.172498
0.172471
0.172445
0.172419
0.172394
0.172369
0.172345
0.172322
0.1723
0.172278
0.172256
0.172236
0.172216
0.172196
0.172177
0.172158
0.17214
0.172123
0.172106
0.172089
0.172073
0.172058
0.172043
0.172028
0.172014
0.172
0.171986
0.171973
0.171961
0.171948
0.171937
0.171925
0.171914
0.171903
0.171892
0.171882
0.171872
0.171863
0.171854
0.171847
0.242907
0.226779
0.229334
0.23146
0.232865
0.233589
0.233781
0.233589
0.233135
0.232508
0.231772
0.23097
0.230134
0.229285
0.228438
0.227604
0.226788
0.225996
0.225229
0.224491
0.22378
0.223097
0.222443
0.221816
0.221215
0.22064
0.22009
0.219563
0.219059
0.218577
0.218115
0.217672
0.217248
0.216842
0.216452
0.216079
0.21572
0.215376
0.215045
0.214728
0.214422
0.214129
0.213846
0.213574
0.213312
0.21306
0.212817
0.212582
0.212356
0.212137
0.211926
0.211723
0.211526
0.211335
0.211151
0.210973
0.210801
0.210634
0.210472
0.210315
0.210163
0.210016
0.209873
0.209734
0.209599
0.209468
0.209341
0.209218
0.209098
0.208981
0.208867
0.208757
0.208649
0.208545
0.208443
0.208344
0.208247
0.208153
0.208061
0.207972
0.207885
0.2078
0.207717
0.207636
0.207557
0.20748
0.207405
0.207332
0.207261
0.207191
0.207123
0.207056
0.206991
0.206928
0.206865
0.206805
0.206746
0.206688
0.206631
0.206576
0.206522
0.206469
0.206418
0.206368
0.206318
0.20627
0.206223
0.206178
0.206133
0.206089
0.206047
0.206005
0.205965
0.205925
0.205887
0.205849
0.205812
0.205777
0.205742
0.205708
0.205675
0.205642
0.205611
0.205581
0.205551
0.205522
0.205493
0.205466
0.205439
0.205413
0.205388
0.205363
0.205339
0.205315
0.205292
0.20527
0.205249
0.205228
0.205207
0.205187
0.205168
0.205149
0.20513
0.205113
0.205095
0.205078
0.205062
0.205046
0.205031
0.205017
0.282344
0.264227
0.266877
0.269449
0.271504
0.272925
0.273765
0.274135
0.274144
0.273887
0.273437
0.27285
0.27217
0.271428
0.270647
0.269845
0.269034
0.268225
0.267423
0.266635
0.265863
0.26511
0.264378
0.263668
0.26298
0.262314
0.261671
0.26105
0.26045
0.259872
0.259314
0.258777
0.258258
0.257759
0.257277
0.256812
0.256364
0.255932
0.255515
0.255112
0.254724
0.254349
0.253987
0.253637
0.253298
0.252971
0.252655
0.252349
0.252053
0.251767
0.25149
0.251221
0.25096
0.250708
0.250463
0.250226
0.249996
0.249772
0.249555
0.249344
0.24914
0.248941
0.248747
0.248559
0.248376
0.248198
0.248025
0.247856
0.247692
0.247532
0.247376
0.247224
0.247076
0.246932
0.246791
0.246654
0.24652
0.24639
0.246262
0.246138
0.246016
0.245898
0.245782
0.245669
0.245559
0.245451
0.245345
0.245242
0.245141
0.245043
0.244947
0.244853
0.244761
0.244671
0.244583
0.244497
0.244412
0.24433
0.24425
0.244171
0.244094
0.244018
0.243944
0.243872
0.243802
0.243733
0.243665
0.243599
0.243535
0.243472
0.24341
0.24335
0.243291
0.243234
0.243178
0.243123
0.243069
0.243017
0.242966
0.242916
0.242868
0.24282
0.242774
0.242729
0.242685
0.242642
0.2426
0.242559
0.242519
0.24248
0.242442
0.242405
0.242369
0.242334
0.2423
0.242266
0.242234
0.242202
0.242171
0.24214
0.242111
0.242082
0.242054
0.242026
0.241999
0.241973
0.241947
0.241922
0.241898
0.241876
0.325741
0.305399
0.307957
0.310735
0.313262
0.315298
0.31679
0.31778
0.318347
0.318573
0.318531
0.318282
0.317875
0.31735
0.316738
0.316063
0.315343
0.314595
0.313829
0.313054
0.312277
0.311504
0.310739
0.309985
0.309244
0.308518
0.307808
0.307116
0.306441
0.305784
0.305146
0.304525
0.303922
0.303337
0.30277
0.302219
0.301685
0.301168
0.300666
0.300179
0.299707
0.299249
0.298805
0.298374
0.297956
0.297551
0.297158
0.296776
0.296405
0.296045
0.295696
0.295356
0.295026
0.294705
0.294393
0.29409
0.293795
0.293508
0.293229
0.292957
0.292692
0.292434
0.292183
0.291938
0.2917
0.291468
0.291241
0.29102
0.290804
0.290594
0.290388
0.290188
0.289992
0.289801
0.289615
0.289432
0.289254
0.28908
0.28891
0.288744
0.288581
0.288422
0.288267
0.288115
0.287967
0.287821
0.287679
0.28754
0.287403
0.28727
0.28714
0.287012
0.286887
0.286764
0.286645
0.286527
0.286412
0.2863
0.286189
0.286081
0.285976
0.285872
0.285771
0.285671
0.285574
0.285479
0.285386
0.285294
0.285205
0.285118
0.285032
0.284948
0.284867
0.284787
0.284708
0.284632
0.284557
0.284484
0.284412
0.284342
0.284274
0.284207
0.284142
0.284078
0.284016
0.283955
0.283895
0.283837
0.28378
0.283725
0.283671
0.283618
0.283566
0.283516
0.283466
0.283418
0.283371
0.283325
0.28328
0.283236
0.283193
0.283151
0.28311
0.28307
0.283031
0.282992
0.282955
0.282918
0.282882
0.282848
0.373492
0.350716
0.35307
0.355841
0.358627
0.361125
0.363191
0.364791
0.365954
0.366734
0.367191
0.367381
0.367354
0.367154
0.366815
0.366368
0.365835
0.365237
0.364589
0.363904
0.363193
0.362465
0.361726
0.360981
0.360236
0.359495
0.358759
0.358031
0.357313
0.356607
0.355914
0.355234
0.354568
0.353916
0.353279
0.352656
0.352049
0.351456
0.350878
0.350315
0.349765
0.34923
0.348708
0.3482
0.347705
0.347222
0.346752
0.346294
0.345848
0.345413
0.344989
0.344576
0.344174
0.343782
0.343399
0.343026
0.342662
0.342307
0.341961
0.341623
0.341293
0.340971
0.340657
0.34035
0.34005
0.339757
0.339471
0.339192
0.338919
0.338651
0.33839
0.338135
0.337885
0.337641
0.337402
0.337168
0.336939
0.336715
0.336496
0.336282
0.336072
0.335866
0.335665
0.335467
0.335274
0.335085
0.334899
0.334718
0.33454
0.334365
0.334194
0.334027
0.333862
0.333701
0.333544
0.333389
0.333237
0.333088
0.332943
0.3328
0.332659
0.332522
0.332387
0.332255
0.332126
0.331999
0.331874
0.331752
0.331633
0.331516
0.331401
0.331288
0.331178
0.331071
0.330965
0.330862
0.33076
0.330661
0.330564
0.33047
0.330377
0.330286
0.330197
0.33011
0.330025
0.329941
0.32986
0.32978
0.329702
0.329626
0.329551
0.329479
0.329407
0.329337
0.329269
0.329202
0.329137
0.329073
0.32901
0.328949
0.328889
0.32883
0.328773
0.328716
0.328661
0.328607
0.328554
0.328502
0.328451
0.328402
0.426033
0.400614
0.402719
0.405327
0.408162
0.41093
0.413429
0.415558
0.417291
0.418641
0.419644
0.420343
0.42078
0.420995
0.421025
0.420901
0.42065
0.420294
0.419854
0.419344
0.418779
0.418171
0.417529
0.41686
0.416173
0.415473
0.414763
0.414049
0.413334
0.41262
0.41191
0.411205
0.410508
0.409818
0.409138
0.408469
0.40781
0.407162
0.406526
0.405902
0.40529
0.40469
0.404102
0.403526
0.402963
0.402411
0.401871
0.401343
0.400826
0.40032
0.399826
0.399342
0.398869
0.398406
0.397954
0.397511
0.397078
0.396654
0.396239
0.395834
0.395437
0.395048
0.394668
0.394296
0.393931
0.393574
0.393225
0.392883
0.392548
0.39222
0.391898
0.391583
0.391275
0.390972
0.390676
0.390385
0.390101
0.389821
0.389548
0.389279
0.389016
0.388758
0.388505
0.388257
0.388013
0.387774
0.38754
0.38731
0.387084
0.386863
0.386645
0.386432
0.386223
0.386017
0.385816
0.385618
0.385424
0.385233
0.385046
0.384862
0.384681
0.384504
0.384331
0.38416
0.383993
0.383828
0.383667
0.383509
0.383354
0.383201
0.383052
0.382905
0.382762
0.382621
0.382483
0.382347
0.382214
0.382084
0.381957
0.381832
0.381709
0.381589
0.381472
0.381356
0.381244
0.381133
0.381025
0.380919
0.380815
0.380713
0.380614
0.380516
0.38042
0.380327
0.380235
0.380145
0.380057
0.379971
0.379886
0.379804
0.379723
0.379643
0.379565
0.379488
0.379413
0.37934
0.379267
0.379196
0.379127
0.379059
0.483839
0.455558
0.457417
0.459772
0.462484
0.465323
0.468077
0.4706
0.472814
0.474692
0.476236
0.477468
0.478415
0.479109
0.479582
0.479862
0.479978
0.479951
0.479805
0.479556
0.479221
0.478814
0.478346
0.477828
0.47727
0.476677
0.476058
0.475418
0.474761
0.474092
0.473414
0.472731
0.472046
0.471359
0.470674
0.469992
0.469314
0.468641
0.467975
0.467316
0.466665
0.466022
0.465389
0.464764
0.464149
0.463544
0.462948
0.462363
0.461787
0.461221
0.460666
0.46012
0.459584
0.459057
0.45854
0.458033
0.457535
0.457046
0.456567
0.456096
0.455634
0.45518
0.454735
0.454298
0.453869
0.453448
0.453035
0.452629
0.452231
0.45184
0.451456
0.45108
0.45071
0.450346
0.44999
0.449639
0.449295
0.448957
0.448625
0.448299
0.447979
0.447664
0.447355
0.447052
0.446753
0.44646
0.446172
0.445889
0.445611
0.445338
0.445069
0.444805
0.444546
0.444291
0.44404
0.443794
0.443552
0.443314
0.44308
0.442851
0.442625
0.442403
0.442185
0.44197
0.44176
0.441553
0.441349
0.441149
0.440953
0.44076
0.440571
0.440385
0.440202
0.440023
0.439847
0.439674
0.439504
0.439338
0.439174
0.439014
0.438857
0.438703
0.438551
0.438403
0.438257
0.438114
0.437974
0.437837
0.437702
0.43757
0.43744
0.437313
0.437188
0.437066
0.436946
0.436829
0.436714
0.436601
0.43649
0.436381
0.436274
0.436169
0.436066
0.435965
0.435866
0.435768
0.435672
0.435578
0.435486
0.435396
0.547435
0.516044
0.517684
0.51976
0.522237
0.524976
0.527796
0.530542
0.533102
0.535409
0.537435
0.539173
0.540632
0.541829
0.542786
0.543526
0.544072
0.544447
0.54467
0.54476
0.544734
0.544608
0.544393
0.544103
0.543748
0.543337
0.542878
0.542378
0.541845
0.541283
0.540697
0.540091
0.53947
0.538837
0.538194
0.537544
0.53689
0.536233
0.535574
0.534916
0.53426
0.533606
0.532956
0.53231
0.531669
0.531035
0.530406
0.529784
0.529169
0.528562
0.527962
0.527369
0.526785
0.526209
0.52564
0.52508
0.524527
0.523983
0.523447
0.522919
0.522399
0.521887
0.521383
0.520887
0.520398
0.519917
0.519444
0.518978
0.518519
0.518067
0.517623
0.517186
0.516755
0.516332
0.515915
0.515504
0.5151
0.514703
0.514312
0.513927
0.513548
0.513175
0.512808
0.512447
0.512091
0.511741
0.511397
0.511058
0.510725
0.510396
0.510073
0.509755
0.509442
0.509134
0.50883
0.508532
0.508238
0.507949
0.507664
0.507384
0.507109
0.506837
0.506571
0.506308
0.506049
0.505795
0.505545
0.505299
0.505057
0.504818
0.504584
0.504354
0.504127
0.503905
0.503686
0.503471
0.503259
0.503052
0.502847
0.502647
0.50245
0.502256
0.502066
0.501879
0.501695
0.501515
0.501338
0.501165
0.500994
0.500827
0.500662
0.500501
0.500342
0.500186
0.500034
0.499884
0.499736
0.499592
0.499449
0.49931
0.499173
0.499038
0.498906
0.498775
0.498647
0.498521
0.498397
0.498275
0.498156
0.498038
0.617401
0.582622
0.584078
0.585892
0.588082
0.590598
0.593321
0.596112
0.598852
0.60145
0.60385
0.606018
0.607942
0.609621
0.611064
0.612283
0.613294
0.614115
0.614763
0.615254
0.615603
0.615826
0.615937
0.615947
0.615869
0.615712
0.615485
0.615197
0.614856
0.614467
0.614038
0.613573
0.613078
0.612556
0.612012
0.611448
0.610869
0.610276
0.609672
0.609059
0.60844
0.607816
0.607188
0.606558
0.605926
0.605295
0.604665
0.604036
0.60341
0.602788
0.602168
0.601553
0.600943
0.600337
0.599737
0.599143
0.598554
0.597971
0.597394
0.596823
0.596259
0.595701
0.59515
0.594605
0.594067
0.593535
0.59301
0.592492
0.59198
0.591475
0.590976
0.590484
0.589998
0.589519
0.589046
0.58858
0.58812
0.587666
0.587218
0.586776
0.58634
0.585911
0.585487
0.585069
0.584657
0.58425
0.583849
0.583454
0.583065
0.58268
0.582302
0.581928
0.58156
0.581197
0.580839
0.580486
0.580139
0.579796
0.579458
0.579125
0.578797
0.578474
0.578155
0.577841
0.577532
0.577227
0.576926
0.57663
0.576339
0.576052
0.575769
0.57549
0.575216
0.574946
0.574681
0.574419
0.574162
0.573908
0.573659
0.573414
0.573172
0.572935
0.572702
0.572472
0.572246
0.572024
0.571806
0.571591
0.57138
0.571172
0.570969
0.570768
0.570571
0.570377
0.570187
0.569999
0.569815
0.569634
0.569456
0.569281
0.569109
0.56894
0.568773
0.568609
0.568448
0.568289
0.568133
0.567978
0.567826
0.567677
0.694368
0.655891
0.657196
0.658788
0.660692
0.662923
0.665427
0.668108
0.670859
0.673587
0.676217
0.678697
0.680994
0.683089
0.684975
0.686651
0.688125
0.689405
0.690502
0.691429
0.692199
0.692824
0.693316
0.693688
0.69395
0.694112
0.694185
0.694176
0.694095
0.693947
0.693741
0.693483
0.693177
0.69283
0.692445
0.692028
0.691581
0.691109
0.690614
0.6901
0.689568
0.689022
0.688463
0.687893
0.687314
0.686728
0.686136
0.685539
0.684938
0.684335
0.68373
0.683124
0.682518
0.681913
0.681309
0.680706
0.680106
0.679508
0.678913
0.678321
0.677733
0.677149
0.676569
0.675994
0.675423
0.674856
0.674295
0.673738
0.673187
0.672641
0.672099
0.671564
0.671033
0.670508
0.669989
0.669475
0.668966
0.668463
0.667966
0.667474
0.666987
0.666506
0.666031
0.665561
0.665096
0.664637
0.664183
0.663735
0.663292
0.662855
0.662423
0.661996
0.661574
0.661157
0.660746
0.66034
0.659939
0.659543
0.659152
0.658766
0.658385
0.658009
0.657638
0.657271
0.65691
0.656553
0.656201
0.655853
0.655511
0.655173
0.654839
0.65451
0.654186
0.653867
0.653551
0.653241
0.652934
0.652633
0.652335
0.652042
0.651753
0.651469
0.651189
0.650913
0.650641
0.650374
0.65011
0.649851
0.649595
0.649344
0.649097
0.648853
0.648613
0.648377
0.648145
0.647916
0.647691
0.64747
0.647252
0.647037
0.646826
0.646618
0.646413
0.646211
0.646012
0.645816
0.645622
0.645431
0.645243
0.645058
0.779034
0.736514
0.737695
0.739108
0.740762
0.742698
0.744917
0.747373
0.749991
0.75269
0.755394
0.758041
0.760583
0.762987
0.765231
0.767301
0.769193
0.770905
0.772442
0.773809
0.775014
0.776066
0.776974
0.777748
0.778397
0.77893
0.779357
0.779686
0.779924
0.78008
0.78016
0.78017
0.780118
0.780008
0.779845
0.779636
0.779383
0.779091
0.778763
0.778404
0.778016
0.777603
0.777166
0.776709
0.776233
0.77574
0.775233
0.774713
0.774182
0.773641
0.773091
0.772534
0.771971
0.771402
0.770829
0.770253
0.769674
0.769092
0.76851
0.767926
0.767343
0.766759
0.766177
0.765595
0.765015
0.764436
0.76386
0.763286
0.762714
0.762146
0.761581
0.761019
0.76046
0.759905
0.759354
0.758807
0.758264
0.757724
0.75719
0.756659
0.756133
0.755611
0.755094
0.754582
0.754074
0.75357
0.753072
0.752578
0.752089
0.751605
0.751125
0.750651
0.750181
0.749716
0.749256
0.748801
0.74835
0.747905
0.747464
0.747028
0.746597
0.74617
0.745749
0.745332
0.74492
0.744513
0.74411
0.743713
0.74332
0.742931
0.742547
0.742168
0.741794
0.741424
0.741059
0.740699
0.740343
0.739992
0.739645
0.739303
0.738965
0.738632
0.738304
0.737979
0.73766
0.737345
0.737034
0.736727
0.736425
0.736127
0.735834
0.735544
0.735259
0.734978
0.734701
0.734428
0.734159
0.733893
0.733632
0.733374
0.73312
0.73287
0.732623
0.732379
0.732139
0.731902
0.731667
0.731436
0.731208
0.730983
0.872168
0.825218
0.826291
0.827566
0.829018
0.830689
0.832611
0.834781
0.837163
0.839699
0.842329
0.844991
0.847633
0.850212
0.852695
0.855058
0.857284
0.859363
0.861291
0.863064
0.864685
0.866157
0.867485
0.868675
0.869734
0.870668
0.871485
0.872191
0.872795
0.873302
0.873719
0.874053
0.87431
0.874494
0.874612
0.874669
0.874669
0.874616
0.874515
0.87437
0.874184
0.87396
0.873702
0.873412
0.873093
0.872748
0.872378
0.871986
0.871574
0.871144
0.870697
0.870234
0.869759
0.86927
0.868771
0.868262
0.867744
0.867218
0.866685
0.866147
0.865602
0.865053
0.864501
0.863945
0.863386
0.862825
0.862263
0.861699
0.861134
0.86057
0.860005
0.859441
0.858877
0.858314
0.857753
0.857193
0.856635
0.856079
0.855525
0.854974
0.854425
0.853879
0.853336
0.852796
0.852259
0.851725
0.851195
0.850668
0.850145
0.849626
0.84911
0.848599
0.848091
0.847587
0.847087
0.846592
0.8461
0.845613
0.84513
0.844651
0.844176
0.843706
0.84324
0.842779
0.842322
0.841869
0.841421
0.840977
0.840538
0.840103
0.839672
0.839246
0.838825
0.838408
0.837995
0.837587
0.837183
0.836784
0.83639
0.836
0.835615
0.835234
0.834857
0.834486
0.834118
0.833755
0.833397
0.833043
0.832694
0.832349
0.832008
0.831672
0.83134
0.831013
0.830689
0.83037
0.830055
0.829745
0.829438
0.829135
0.828836
0.828541
0.82825
0.827963
0.827678
0.827398
0.82712
0.826846
0.826575
0.826308
0.974614
0.92281
0.923784
0.924951
0.926249
0.927704
0.929357
0.93123
0.933323
0.935608
0.938045
0.940586
0.943184
0.945794
0.948379
0.950908
0.953354
0.955701
0.957934
0.960043
0.962024
0.963874
0.965592
0.96718
0.96864
0.969976
0.971193
0.972295
0.973287
0.974175
0.974965
0.97566
0.976268
0.976792
0.977239
0.977612
0.977916
0.978156
0.978335
0.978458
0.978529
0.97855
0.978526
0.978459
0.978352
0.978208
0.97803
0.97782
0.97758
0.977312
0.977019
0.976702
0.976364
0.976004
0.975627
0.975231
0.97482
0.974394
0.973954
0.973502
0.973039
0.972565
0.972082
0.97159
0.97109
0.970583
0.97007
0.969551
0.969026
0.968498
0.967965
0.967429
0.96689
0.966349
0.965805
0.96526
0.964713
0.964166
0.963618
0.963069
0.962521
0.961973
0.961426
0.960879
0.960334
0.959789
0.959246
0.958705
0.958166
0.957629
0.957093
0.956561
0.95603
0.955502
0.954977
0.954455
0.953936
0.95342
0.952907
0.952397
0.95189
0.951387
0.950888
0.950392
0.949899
0.94941
0.948925
0.948444
0.947966
0.947493
0.947023
0.946557
0.946095
0.945637
0.945183
0.944733
0.944287
0.943846
0.943409
0.942975
0.942546
0.942122
0.941701
0.941285
0.940873
0.940466
0.940063
0.939664
0.93927
0.938879
0.938494
0.938112
0.937735
0.937362
0.936994
0.93663
0.93627
0.935914
0.935562
0.935214
0.934871
0.934531
0.934195
0.933863
0.933534
0.933209
0.932888
0.932569
0.932254
0.931943
1.0873
1.03018
1.03106
1.03213
1.03332
1.03461
1.03604
1.03765
1.03945
1.04144
1.04361
1.04593
1.04836
1.05087