/*--------------------------------*- C++ -*----------------------------------*\
| =========                 |                                                 |
| \\      /  F ield         | OpenFOAM: The Open Source CFD Toolbox           |
|  \\    /   O peration     | Version:  5.x                                   |
|   \\  /    A nd           | Web:      www.OpenFOAM.org                      |
|    \\/     M anipulation  |                                                 |
\*---------------------------------------------------------------------------*/
FoamFile
{
    version     2.0;
    format      ascii;
    class       volScalarField;
    location    "0";
    object      epsilon;
}
// * * * * * * * * * * * * * * * * * * * * * * * * * * * * * * * * * * * * * //

dimensions      [0 2 -3 0 0 0 0];

internalField   nonuniform List<scalar> 
103200
(
14.9451
37.2303
37.4712
37.7199
37.9363
38.1214
38.2815
38.4221
38.5469
38.6592
38.7609
38.8539
38.9394
39.0184
39.0917
39.1601
39.2241
39.2842
39.3407
39.394
39.4445
39.4923
39.5376
39.5808
39.622
39.6613
39.6989
39.7348
39.7693
39.8025
39.8343
39.865
39.8945
39.923
39.9505
39.9771
40.0029
40.0278
40.052
40.0754
40.0982
40.1203
40.1418
40.1627
40.1831
40.2029
40.2223
40.2411
40.2595
40.2774
40.295
40.3121
40.3288
40.3451
40.3611
40.3768
40.3921
40.407
40.4217
40.436
40.4501
40.4638
40.4773
40.4905
40.5034
40.5161
40.5285
40.5407
40.5527
40.5644
40.5758
40.5871
40.5981
40.6089
40.6195
40.63
40.6402
40.6502
40.66
40.6696
40.6791
40.6883
40.6974
40.7063
40.7151
40.7236
40.732
40.7403
40.7484
40.7563
40.7641
40.7717
40.7792
40.7865
40.7937
40.8007
40.8076
40.8144
40.8211
40.8276
40.834
40.8402
40.8464
40.8524
40.8583
40.864
40.8697
40.8753
40.8807
40.886
40.8912
40.8963
40.9013
40.9062
40.911
40.9157
40.9202
40.9247
40.9291
40.9333
40.9375
40.9415
40.9455
40.9493
40.9531
40.9567
40.9602
40.9636
40.9669
40.9701
40.9732
40.9762
40.9791
40.9818
40.9844
40.9869
40.9893
40.9915
40.9936
40.9955
40.9972
40.9988
41.0002
41.0013
41.0022
41.0028
41.0032
41.0032
41.0031
41.0031
6.02606
8.38846
8.45369
8.53709
8.60946
8.67004
8.7212
8.76507
8.80326
8.83695
8.86701
8.89407
8.91863
8.94108
8.96172
8.98078
8.99846
9.01493
9.03032
9.04475
9.05832
9.07111
9.08319
9.09463
9.10548
9.1158
9.12562
9.13499
9.14395
9.15251
9.16072
9.1686
9.17617
9.18345
9.19047
9.19723
9.20375
9.21006
9.21616
9.22206
9.22778
9.23332
9.2387
9.24392
9.249
9.25394
9.25874
9.26342
9.26797
9.27241
9.27673
9.28096
9.28508
9.2891
9.29303
9.29686
9.30061
9.30428
9.30786
9.31137
9.3148
9.31816
9.32144
9.32466
9.32781
9.33089
9.33391
9.33687
9.33977
9.34261
9.34539
9.34812
9.35079
9.35341
9.35598
9.3585
9.36096
9.36338
9.36575
9.36808
9.37036
9.37259
9.37478
9.37693
9.37904
9.3811
9.38313
9.38511
9.38706
9.38897
9.39084
9.39267
9.39447
9.39623
9.39796
9.39966
9.40132
9.40295
9.40454
9.40611
9.40764
9.40915
9.41062
9.41207
9.41348
9.41487
9.41623
9.41756
9.41887
9.42015
9.4214
9.42263
9.42383
9.425
9.42615
9.42727
9.42837
9.42945
9.43049
9.43152
9.43252
9.43349
9.43444
9.43536
9.43626
9.43714
9.43799
9.43881
9.43961
9.44039
9.44114
9.44186
9.44255
9.44322
9.44386
9.44447
9.44505
9.4456
9.44612
9.4466
9.44704
9.44744
9.4478
9.44811
9.44837
9.44857
9.44871
9.44879
9.44884
9.4489
3.75803
4.2966
4.2378
4.24561
4.26804
4.2927
4.31629
4.33798
4.35772
4.37563
4.39193
4.40681
4.42046
4.43302
4.44462
4.45538
4.46539
4.47473
4.48347
4.49167
4.49938
4.50665
4.51351
4.52001
4.52616
4.53201
4.53757
4.54287
4.54793
4.55276
4.55738
4.56181
4.56606
4.57014
4.57407
4.57785
4.58149
4.585
4.58839
4.59167
4.59484
4.59791
4.60088
4.60377
4.60656
4.60928
4.61192
4.61449
4.61698
4.61941
4.62178
4.62408
4.62633
4.62852
4.63066
4.63274
4.63478
4.63677
4.63871
4.64061
4.64246
4.64428
4.64605
4.64778
4.64948
4.65114
4.65277
4.65436
4.65592
4.65744
4.65894
4.6604
4.66183
4.66323
4.66461
4.66596
4.66728
4.66857
4.66984
4.67108
4.6723
4.67349
4.67466
4.67581
4.67693
4.67803
4.67911
4.68017
4.68121
4.68222
4.68322
4.6842
4.68516
4.6861
4.68702
4.68792
4.6888
4.68967
4.69052
4.69136
4.69217
4.69297
4.69376
4.69453
4.69529
4.69602
4.69675
4.69746
4.69816
4.69884
4.69951
4.70016
4.7008
4.70143
4.70204
4.70264
4.70323
4.7038
4.70436
4.70491
4.70544
4.70596
4.70647
4.70697
4.70745
4.70792
4.70838
4.70883
4.70926
4.70968
4.71009
4.71048
4.71086
4.71122
4.71158
4.71192
4.71224
4.71255
4.71284
4.71312
4.71337
4.71361
4.71383
4.71403
4.71421
4.71436
4.71448
4.71457
4.71464
4.7147
2.7086
2.87471
2.77085
2.73956
2.73383
2.73785
2.74576
2.75512
2.76485
2.77446
2.78372
2.79254
2.80089
2.80876
2.81618
2.82317
2.82976
2.83598
2.84185
2.8474
2.85265
2.85762
2.86234
2.86683
2.8711
2.87516
2.87904
2.88274
2.88627
2.88966
2.8929
2.89601
2.89899
2.90186
2.90462
2.90728
2.90984
2.91231
2.91469
2.917
2.91922
2.92138
2.92347
2.92549
2.92746
2.92936
2.93121
2.93301
2.93475
2.93645
2.93811
2.93972
2.94129
2.94281
2.9443
2.94576
2.94718
2.94856
2.94991
2.95123
2.95252
2.95378
2.95501
2.95621
2.95739
2.95854
2.95967
2.96077
2.96185
2.9629
2.96393
2.96495
2.96594
2.9669
2.96785
2.96878
2.96969
2.97059
2.97146
2.97232
2.97316
2.97398
2.97478
2.97557
2.97635
2.97711
2.97785
2.97858
2.97929
2.97999
2.98068
2.98135
2.98201
2.98266
2.98329
2.98392
2.98453
2.98512
2.98571
2.98628
2.98685
2.9874
2.98794
2.98847
2.98899
2.9895
2.99
2.99049
2.99097
2.99144
2.9919
2.99235
2.99279
2.99323
2.99365
2.99406
2.99447
2.99487
2.99525
2.99563
2.996
2.99637
2.99672
2.99706
2.9974
2.99773
2.99805
2.99836
2.99866
2.99896
2.99924
2.99952
2.99979
3.00005
3.0003
3.00054
3.00078
3.001
3.00121
3.00142
3.00161
3.00179
3.00196
3.00212
3.00227
3.0024
3.00251
3.00261
3.00269
3.00275
2.08375
2.16192
2.05214
2.00268
1.98068
1.97162
1.96909
1.97
1.97279
1.9766
1.98094
1.98554
1.99021
1.99486
1.99943
2.00387
2.00817
2.01232
2.0163
2.02013
2.0238
2.02732
2.03069
2.03392
2.03702
2.03999
2.04284
2.04558
2.04821
2.05073
2.05316
2.0555
2.05775
2.05991
2.062
2.06402
2.06597
2.06785
2.06967
2.07143
2.07314
2.07479
2.07639
2.07794
2.07945
2.08091
2.08233
2.08372
2.08506
2.08637
2.08764
2.08888
2.09009
2.09127
2.09241
2.09353
2.09463
2.09569
2.09673
2.09775
2.09874
2.09971
2.10066
2.10159
2.10249
2.10338
2.10425
2.1051
2.10593
2.10674
2.10753
2.10831
2.10907
2.10982
2.11055
2.11127
2.11197
2.11266
2.11333
2.11399
2.11463
2.11527
2.11589
2.1165
2.11709
2.11768
2.11825
2.11881
2.11936
2.1199
2.12043
2.12095
2.12146
2.12196
2.12245
2.12293
2.1234
2.12386
2.12431
2.12475
2.12519
2.12561
2.12603
2.12644
2.12684
2.12724
2.12762
2.128
2.12837
2.12874
2.1291
2.12944
2.12979
2.13012
2.13045
2.13077
2.13109
2.1314
2.1317
2.13199
2.13228
2.13256
2.13284
2.13311
2.13337
2.13363
2.13388
2.13412
2.13436
2.13459
2.13482
2.13504
2.13525
2.13546
2.13566
2.13585
2.13604
2.13622
2.1364
2.13656
2.13672
2.13688
2.13702
2.13716
2.13729
2.13741
2.13752
2.13762
2.13771
2.13777
1.6628
1.72436
1.62717
1.5724
1.54208
1.5251
1.51567
1.51071
1.50851
1.50804
1.5087
1.51009
1.51195
1.51412
1.51648
1.51895
1.52148
1.52402
1.52655
1.52905
1.53151
1.53391
1.53625
1.53853
1.54074
1.54289
1.54497
1.54699
1.54894
1.55084
1.55267
1.55444
1.55616
1.55782
1.55943
1.56099
1.5625
1.56397
1.56539
1.56677
1.56811
1.56941
1.57068
1.5719
1.5731
1.57426
1.57539
1.5765
1.57757
1.57861
1.57963
1.58062
1.58159
1.58254
1.58346
1.58436
1.58524
1.5861
1.58694
1.58776
1.58856
1.58934
1.59011
1.59085
1.59159
1.5923
1.59301
1.59369
1.59436
1.59502
1.59567
1.5963
1.59692
1.59752
1.59811
1.5987
1.59927
1.59982
1.60037
1.60091
1.60143
1.60195
1.60245
1.60295
1.60343
1.60391
1.60438
1.60483
1.60528
1.60572
1.60615
1.60658
1.60699
1.6074
1.6078
1.60819
1.60858
1.60896
1.60933
1.60969
1.61005
1.61039
1.61074
1.61107
1.6114
1.61173
1.61204
1.61236
1.61266
1.61296
1.61325
1.61354
1.61382
1.6141
1.61437
1.61463
1.61489
1.61515
1.6154
1.61564
1.61588
1.61611
1.61634
1.61657
1.61678
1.617
1.61721
1.61741
1.61761
1.6178
1.61799
1.61818
1.61836
1.61853
1.6187
1.61887
1.61903
1.61918
1.61933
1.61948
1.61962
1.61976
1.61989
1.62001
1.62013
1.62024
1.62035
1.62045
1.62053
1.6206
1.35927
1.41999
1.34267
1.29039
1.25722
1.23607
1.22241
1.21354
1.20782
1.20424
1.20213
1.20106
1.20074
1.20096
1.20156
1.20245
1.20354
1.20477
1.20611
1.20752
1.20898
1.21046
1.21195
1.21345
1.21493
1.2164
1.21785
1.21927
1.22067
1.22204
1.22338
1.22469
1.22597
1.22723
1.22845
1.22964
1.2308
1.23193
1.23303
1.23411
1.23516
1.23618
1.23718
1.23816
1.23911
1.24003
1.24094
1.24182
1.24268
1.24353
1.24435
1.24515
1.24594
1.24671
1.24746
1.24819
1.24891
1.24961
1.2503
1.25097
1.25163
1.25227
1.2529
1.25352
1.25412
1.25471
1.25529
1.25586
1.25642
1.25696
1.2575
1.25802
1.25853
1.25904
1.25953
1.26001
1.26049
1.26095
1.26141
1.26186
1.2623
1.26273
1.26315
1.26356
1.26397
1.26437
1.26476
1.26514
1.26552
1.26589
1.26625
1.26661
1.26696
1.2673
1.26764
1.26797
1.26829
1.26861
1.26893
1.26923
1.26953
1.26983
1.27012
1.2704
1.27068
1.27096
1.27123
1.27149
1.27175
1.272
1.27225
1.2725
1.27274
1.27297
1.2732
1.27343
1.27365
1.27387
1.27408
1.27429
1.2745
1.2747
1.27489
1.27508
1.27527
1.27546
1.27564
1.27581
1.27598
1.27615
1.27632
1.27648
1.27663
1.27679
1.27694
1.27708
1.27722
1.27736
1.27749
1.27762
1.27775
1.27787
1.27799
1.2781
1.27821
1.27832
1.27842
1.27852
1.2786
1.27868
1.13089
1.19134
1.13462
1.08924
1.05696
1.03443
1.01859
1.00735
0.999316
0.993551
0.989433
0.986526
0.984526
0.98321
0.982418
0.98203
0.981953
0.98212
0.982475
0.982978
0.983594
0.984299
0.985072
0.985895
0.986756
0.987643
0.988548
0.989465
0.990387
0.99131
0.99223
0.993144
0.99405
0.994946
0.995831
0.996704
0.997563
0.998408
0.999239
1.00005
1.00086
1.00164
1.00241
1.00317
1.00391
1.00464
1.00535
1.00605
1.00674
1.00741
1.00807
1.00871
1.00934
1.00996
1.01057
1.01117
1.01175
1.01232
1.01289
1.01344
1.01398
1.0145
1.01502
1.01553
1.01603
1.01652
1.017
1.01747
1.01794
1.01839
1.01884
1.01927
1.0197
1.02013
1.02054
1.02094
1.02134
1.02173
1.02212
1.0225
1.02287
1.02323
1.02359
1.02394
1.02428
1.02462
1.02495
1.02528
1.0256
1.02591
1.02622
1.02653
1.02682
1.02712
1.02741
1.02769
1.02797
1.02824
1.02851
1.02877
1.02903
1.02928
1.02953
1.02978
1.03002
1.03025
1.03048
1.03071
1.03094
1.03116
1.03137
1.03158
1.03179
1.032
1.0322
1.03239
1.03258
1.03277
1.03296
1.03314
1.03332
1.0335
1.03367
1.03384
1.034
1.03416
1.03432
1.03447
1.03463
1.03477
1.03492
1.03506
1.0352
1.03534
1.03547
1.0356
1.03573
1.03585
1.03597
1.03609
1.0362
1.03631
1.03642
1.03653
1.03663
1.03673
1.03683
1.03692
1.037
1.03708
0.953772
1.01146
0.972629
0.936131
0.907182
0.885289
0.868867
0.856498
0.847116
0.839953
0.834458
0.830235
0.826993
0.824515
0.822641
0.821245
0.820233
0.819529
0.819076
0.818826
0.818742
0.818794
0.818956
0.819208
0.819534
0.819921
0.820356
0.820831
0.821337
0.821867
0.822418
0.822983
0.823558
0.824142
0.82473
0.825321
0.825913
0.826503
0.827092
0.827677
0.828258
0.828834
0.829404
0.829968
0.830525
0.831075
0.831619
0.832154
0.832683
0.833203
0.833716
0.834222
0.834719
0.835209
0.835691
0.836165
0.836632
0.837091
0.837542
0.837987
0.838424
0.838853
0.839276
0.839691
0.8401
0.840502
0.840897
0.841285
0.841667
0.842043
0.842412
0.842775
0.843132
0.843483
0.843829
0.844168
0.844502
0.84483
0.845152
0.84547
0.845781
0.846088
0.84639
0.846686
0.846978
0.847265
0.847547
0.847824
0.848097
0.848365
0.848629
0.848889
0.849144
0.849394
0.849641
0.849884
0.850122
0.850356
0.850587
0.850814
0.851036
0.851256
0.851471
0.851683
0.851891
0.852096
0.852297
0.852495
0.852689
0.85288
0.853068
0.853253
0.853434
0.853612
0.853787
0.853959
0.854128
0.854294
0.854457
0.854617
0.854775
0.854929
0.85508
0.855229
0.855375
0.855518
0.855658
0.855796
0.855931
0.856063
0.856193
0.85632
0.856444
0.856566
0.856685
0.856802
0.856916
0.857028
0.857138
0.857245
0.857349
0.857451
0.857551
0.857649
0.857744
0.857837
0.857928
0.858015
0.858098
0.858172
0.813216
0.866035
0.841086
0.813663
0.789394
0.769553
0.753752
0.741243
0.731321
0.723416
0.717087
0.711999
0.707894
0.704578
0.701897
0.699732
0.697992
0.6966
0.695497
0.694635
0.693974
0.693482
0.693132
0.692903
0.692774
0.692732
0.692762
0.692854
0.692998
0.693186
0.693411
0.693668
0.693952
0.694258
0.694582
0.694922
0.695275
0.695637
0.696008
0.696386
0.696768
0.697154
0.697543
0.697932
0.698323
0.698713
0.699103
0.699491
0.699877
0.700261
0.700642
0.701021
0.701396
0.701768
0.702136
0.702501
0.702861
0.703218
0.70357
0.703918
0.704262
0.704602
0.704937
0.705268
0.705595
0.705917
0.706235
0.706549
0.706858
0.707163
0.707464
0.70776
0.708052
0.70834
0.708624
0.708904
0.709179
0.709451
0.709719
0.709982
0.710242
0.710498
0.71075
0.710999
0.711243
0.711484
0.711722
0.711956
0.712186
0.712413
0.712637
0.712857
0.713073
0.713287
0.713497
0.713704
0.713908
0.714108
0.714306
0.7145
0.714692
0.71488
0.715066
0.715248
0.715428
0.715605
0.715779
0.71595
0.716119
0.716285
0.716448
0.716609
0.716767
0.716923
0.717076
0.717227
0.717375
0.717521
0.717664
0.717805
0.717943
0.718079
0.718213
0.718345
0.718474
0.718601
0.718726
0.718848
0.718968
0.719086
0.719202
0.719316
0.719428
0.719537
0.719645
0.71975
0.719853
0.719955
0.720054
0.720151
0.720247
0.72034
0.720432
0.720522
0.72061
0.720697
0.720781
0.720864
0.720943
0.721014
0.699594
0.746537
0.731422
0.712101
0.692986
0.676061
0.661751
0.64987
0.640062
0.631965
0.625265
0.619703
0.615071
0.611201
0.607961
0.605243
0.602961
0.601046
0.599439
0.598094
0.596971
0.596039
0.59527
0.59464
0.594132
0.593727
0.593413
0.593178
0.59301
0.592902
0.592845
0.592833
0.59286
0.592921
0.593012
0.593128
0.593268
0.593427
0.593603
0.593793
0.593997
0.594211
0.594435
0.594667
0.594906
0.59515
0.5954
0.595653
0.59591
0.596169
0.596429
0.596692
0.596955
0.597219
0.597482
0.597746
0.598009
0.598271
0.598532
0.598792
0.59905
0.599307
0.599562
0.599815
0.600066
0.600315
0.600562
0.600806
0.601049
0.601288
0.601526
0.601761
0.601993
0.602223
0.60245
0.602675
0.602897
0.603117
0.603334
0.603548
0.60376
0.603969
0.604176
0.60438
0.604582
0.604781
0.604977
0.605171
0.605362
0.605551
0.605738
0.605922
0.606103
0.606282
0.606459
0.606633
0.606805
0.606975
0.607142
0.607307
0.607469
0.607629
0.607787
0.607943
0.608097
0.608248
0.608398
0.608545
0.60869
0.608833
0.608974
0.609113
0.60925
0.609385
0.609518
0.609649
0.609778
0.609905
0.61003
0.610153
0.610275
0.610394
0.610512
0.610628
0.610742
0.610854
0.610964
0.611073
0.61118
0.611285
0.611388
0.61149
0.611589
0.611687
0.611784
0.611878
0.611971
0.612063
0.612153
0.612241
0.612328
0.612413
0.612497
0.612579
0.61266
0.61274
0.612818
0.612895
0.612969
0.613036
0.606316
0.647267
0.638601
0.625813
0.611644
0.598011
0.585744
0.575054
0.565873
0.558036
0.551356
0.545659
0.540791
0.536622
0.533045
0.529968
0.527316
0.525029
0.523052
0.521344
0.519867
0.51859
0.517488
0.516537
0.515719
0.515017
0.514417
0.513908
0.513477
0.513116
0.512818
0.512574
0.512379
0.512227
0.512113
0.512034
0.511985
0.511963
0.511966
0.51199
0.512033
0.512094
0.51217
0.512259
0.512361
0.512473
0.512595
0.512725
0.512863
0.513008
0.513159
0.513314
0.513475
0.513639
0.513806
0.513976
0.514149
0.514324
0.514501
0.514679
0.514857
0.515037
0.515218
0.515398
0.515579
0.51576
0.515941
0.516121
0.5163
0.51648
0.516658
0.516835
0.517012
0.517188
0.517362
0.517535
0.517708
0.517878
0.518048
0.518216
0.518383
0.518549
0.518712
0.518875
0.519036
0.519195
0.519353
0.51951
0.519665
0.519818
0.51997
0.52012
0.520268
0.520415
0.52056
0.520703
0.520845
0.520986
0.521124
0.521261
0.521397
0.52153
0.521662
0.521793
0.521922
0.52205
0.522175
0.5223
0.522423
0.522544
0.522664
0.522782
0.522899
0.523014
0.523128
0.523241
0.523352
0.523461
0.52357
0.523676
0.523782
0.523885
0.523988
0.524089
0.524188
0.524286
0.524383
0.524478
0.524572
0.524665
0.524756
0.524846
0.524934
0.525021
0.525107
0.525191
0.525274
0.525356
0.525437
0.525516
0.525594
0.525671
0.525747
0.525822
0.525895
0.525968
0.52604
0.52611
0.526178
0.526241
0.528737
0.564084
0.559381
0.551428
0.541544
0.531172
0.521205
0.512064
0.503884
0.496661
0.490322
0.484776
0.479926
0.475682
0.471965
0.468703
0.465838
0.463317
0.461095
0.459135
0.457404
0.455874
0.45452
0.453322
0.452262
0.451325
0.450495
0.449763
0.449116
0.448547
0.448046
0.447607
0.447224
0.44689
0.446601
0.446352
0.44614
0.445961
0.445812
0.445689
0.445591
0.445515
0.445459
0.445421
0.4454
0.445393
0.4454
0.44542
0.445451
0.445491
0.445541
0.4456
0.445666
0.445739
0.445818
0.445903
0.445992
0.446087
0.446185
0.446287
0.446393
0.446501
0.446612
0.446726
0.446841
0.446958
0.447077
0.447197
0.447318
0.447441
0.447564
0.447687
0.447812
0.447936
0.448061
0.448186
0.448311
0.448436
0.448561
0.448686
0.44881
0.448934
0.449058
0.449181
0.449303
0.449426
0.449547
0.449668
0.449788
0.449907
0.450026
0.450144
0.45026
0.450377
0.450492
0.450606
0.450719
0.450832
0.450943
0.451053
0.451163
0.451271
0.451379
0.451485
0.451591
0.451695
0.451799
0.451901
0.452003
0.452103
0.452203
0.452301
0.452399
0.452495
0.452591
0.452686
0.452779
0.452872
0.452963
0.453054
0.453144
0.453232
0.45332
0.453406
0.453492
0.453576
0.45366
0.453742
0.453824
0.453904
0.453983
0.454061
0.454139
0.454215
0.45429
0.454364
0.454437
0.45451
0.454581
0.454651
0.454721
0.454789
0.454857
0.454924
0.45499
0.455056
0.45512
0.455184
0.455246
0.455303
0.463489
0.493866
0.491462
0.486809
0.480327
0.472883
0.465213
0.457784
0.450839
0.444482
0.438734
0.433571
0.428951
0.424825
0.421142
0.417854
0.414915
0.412287
0.409934
0.407826
0.405934
0.404235
0.402707
0.401333
0.400096
0.398981
0.397977
0.397071
0.396255
0.395519
0.394855
0.394257
0.393718
0.393234
0.392798
0.392407
0.392056
0.391743
0.391463
0.391214
0.390993
0.390798
0.390626
0.390477
0.390347
0.390235
0.39014
0.390061
0.389995
0.389943
0.389903
0.389873
0.389854
0.389844
0.389843
0.38985
0.389864
0.389885
0.389911
0.389944
0.389982
0.390024
0.390072
0.390123
0.390177
0.390236
0.390297
0.390361
0.390428
0.390497
0.390569
0.390642
0.390717
0.390794
0.390872
0.390952
0.391032
0.391114
0.391197
0.391281
0.391365
0.39145
0.391535
0.391621
0.391707
0.391794
0.39188
0.391967
0.392054
0.392141
0.392229
0.392316
0.392402
0.392489
0.392576
0.392662
0.392748
0.392833
0.392919
0.393003
0.393088
0.393172
0.393256
0.393339
0.393422
0.393504
0.393586
0.393667
0.393748
0.393828
0.393908
0.393987
0.394066
0.394145
0.394222
0.3943
0.394376
0.394452
0.394528
0.394603
0.394677
0.394751
0.394824
0.394896
0.394968
0.395039
0.395109
0.395179
0.395248
0.395316
0.395383
0.39545
0.395516
0.395582
0.395646
0.39571
0.395774
0.395836
0.395898
0.395959
0.39602
0.39608
0.396139
0.396198
0.396257
0.396315
0.396372
0.396429
0.396484
0.396535
0.408092
0.434193
0.43304
0.430483
0.426494
0.421464
0.415885
0.410156
0.404542
0.399201
0.394213
0.389609
0.38539
0.381542
0.378041
0.374861
0.371974
0.369353
0.366973
0.364811
0.362845
0.361057
0.359428
0.357944
0.356591
0.355356
0.354228
0.353198
0.352255
0.351393
0.350605
0.349883
0.349222
0.348617
0.348063
0.347556
0.347092
0.346667
0.346278
0.345923
0.345598
0.345302
0.345032
0.344786
0.344562
0.344359
0.344175
0.344009
0.34386
0.343725
0.343605
0.343498
0.343402
0.343319
0.343246
0.343182
0.343128
0.343082
0.343044
0.343013
0.34299
0.342972
0.342961
0.342955
0.342954
0.342958
0.342967
0.342979
0.342996
0.343016
0.343039
0.343066
0.343095
0.343128
0.343162
0.343199
0.343239
0.34328
0.343323
0.343368
0.343415
0.343463
0.343512
0.343563
0.343614
0.343667
0.343721
0.343776
0.343832
0.343888
0.343945
0.344003
0.344061
0.34412
0.344179
0.344238
0.344298
0.344358
0.344418
0.344478
0.344539
0.344599
0.34466
0.344721
0.344782
0.344842
0.344903
0.344964
0.345025
0.345086
0.345146
0.345207
0.345268
0.345328
0.345388
0.345449
0.345509
0.345568
0.345628
0.345687
0.345747
0.345806
0.345864
0.345923
0.345981
0.346038
0.346096
0.346153
0.346209
0.346265
0.346321
0.346377
0.346432
0.346486
0.34654
0.346594
0.346647
0.3467
0.346752
0.346804
0.346856
0.346907
0.346958
0.347009
0.347059
0.347109
0.347159
0.347208
0.347256
0.347301
0.360676
0.383161
0.382641
0.381328
0.37903
0.37584
0.372014
0.367832
0.363522
0.359245
0.35511
0.351177
0.347481
0.344033
0.340835
0.337877
0.335148
0.332634
0.33032
0.32819
0.326229
0.324424
0.322762
0.321231
0.319819
0.318517
0.317315
0.316205
0.31518
0.314232
0.313356
0.312545
0.311794
0.311098
0.310454
0.309857
0.309304
0.30879
0.308315
0.307873
0.307464
0.307085
0.306733
0.306407
0.306104
0.305824
0.305565
0.305325
0.305103
0.304897
0.304708
0.304533
0.304371
0.304223
0.304086
0.303961
0.303846
0.303741
0.303646
0.303559
0.30348
0.303408
0.303344
0.303287
0.303236
0.30319
0.303151
0.303116
0.303087
0.303062
0.303042
0.303025
0.303013
0.303004
0.302999
0.302996
0.302997
0.303001
0.303007
0.303016
0.303028
0.303041
0.303057
0.303074
0.303094
0.303115
0.303138
0.303163
0.303189
0.303216
0.303245
0.303275
0.303306
0.303338
0.303371
0.303404
0.303439
0.303475
0.303511
0.303548
0.303585
0.303623
0.303662
0.303701
0.303741
0.303781
0.303822
0.303863
0.303904
0.303946
0.303988
0.304031
0.304074
0.304117
0.30416
0.304203
0.304247
0.304291
0.304335
0.304379
0.304424
0.304468
0.304512
0.304557
0.304601
0.304646
0.30469
0.304735
0.304779
0.304823
0.304867
0.304911
0.304955
0.304999
0.305042
0.305086
0.305129
0.305172
0.305214
0.305257
0.3053
0.305342
0.305384
0.305426
0.305468
0.30551
0.305552
0.305594
0.305634
0.305672
0.319804
0.339251
0.339026
0.338404
0.337169
0.335276
0.332813
0.329933
0.326799
0.323545
0.320276
0.317066
0.313963
0.310999
0.30819
0.305543
0.303059
0.300735
0.298565
0.296541
0.294656
0.292901
0.291266
0.289745
0.288328
0.287009
0.28578
0.284635
0.283568
0.282572
0.281643
0.280776
0.279966
0.27921
0.278503
0.277842
0.277223
0.276645
0.276103
0.275597
0.275122
0.274677
0.274261
0.27387
0.273505
0.273162
0.27284
0.272539
0.272257
0.271992
0.271745
0.271512
0.271295
0.271091
0.2709
0.270721
0.270554
0.270398
0.270252
0.270115
0.269988
0.269869
0.269758
0.269655
0.26956
0.26947
0.269388
0.269311
0.269241
0.269175
0.269115
0.26906
0.269009
0.268963
0.268921
0.268883
0.268849
0.268818
0.268791
0.268767
0.268745
0.268727
0.268712
0.268699
0.268688
0.26868
0.268675
0.268671
0.268669
0.268669
0.268671
0.268675
0.268681
0.268688
0.268696
0.268706
0.268717
0.268729
0.268743
0.268757
0.268773
0.26879
0.268808
0.268826
0.268846
0.268866
0.268887
0.268909
0.268932
0.268956
0.26898
0.269005
0.26903
0.269057
0.269083
0.269111
0.269139
0.269167
0.269196
0.269225
0.269255
0.269285
0.269316
0.269346
0.269378
0.269409
0.269441
0.269473
0.269505
0.269537
0.269569
0.269602
0.269635
0.269667
0.2697
0.269733
0.269766
0.269799
0.269832
0.269865
0.269899
0.269932
0.269965
0.269999
0.270032
0.270066
0.2701
0.270133
0.270166
0.270197
0.284358
0.301255
0.301155
0.300887
0.300275
0.29923
0.297746
0.295884
0.293734
0.291389
0.288934
0.286437
0.283949
0.281508
0.27914
0.276863
0.274687
0.272617
0.270655
0.2688
0.26705
0.265401
0.263848
0.262388
0.261016
0.259725
0.258512
0.257372
0.256301
0.255293
0.254346
0.253455
0.252616
0.251827
0.251084
0.250384
0.249724
0.249103
0.248517
0.247964
0.247443
0.246951
0.246487
0.246049
0.245635
0.245244
0.244874
0.244525
0.244195
0.243883
0.243588
0.24331
0.243046
0.242796
0.242561
0.242337
0.242126
0.241927
0.241738
0.24156
0.241391
0.241231
0.24108
0.240938
0.240803
0.240676
0.240556
0.240442
0.240335
0.240234
0.240139
0.240049
0.239965
0.239885
0.23981
0.23974
0.239674
0.239612
0.239555
0.2395
0.23945
0.239403
0.239359
0.239318
0.23928
0.239245
0.239213
0.239183
0.239156
0.239131
0.239109
0.239089
0.23907
0.239054
0.239039
0.239027
0.239016
0.239006
0.238999
0.238992
0.238988
0.238984
0.238982
0.238981
0.238982
0.238983
0.238986
0.23899
0.238995
0.239001
0.239009
0.239017
0.239026
0.239036
0.239047
0.239059
0.239071
0.239085
0.239099
0.239114
0.239129
0.239145
0.239162
0.23918
0.239198
0.239216
0.239236
0.239255
0.239275
0.239296
0.239317
0.239338
0.239359
0.239381
0.239404
0.239426
0.239449
0.239472
0.239495
0.239519
0.239543
0.239567
0.239592
0.239616
0.239641
0.239666
0.239692
0.239717
0.239743
0.239766
0.253457
0.268206
0.268152
0.268049
0.267774
0.267242
0.266413
0.265287
0.263902
0.26231
0.260565
0.25872
0.25682
0.254901
0.252992
0.251114
0.249282
0.247509
0.2458
0.24416
0.242592
0.241095
0.239671
0.238316
0.237029
0.235808
0.23465
0.233552
0.232511
0.231525
0.230591
0.229705
0.228866
0.228071
0.227318
0.226603
0.225926
0.225283
0.224673
0.224095
0.223546
0.223024
0.222529
0.222059
0.221612
0.221187
0.220783
0.220399
0.220034
0.219687
0.219356
0.219042
0.218742
0.218457
0.218186
0.217927
0.217681
0.217447
0.217223
0.21701
0.216807
0.216614
0.21643
0.216254
0.216086
0.215927
0.215775
0.21563
0.215492
0.21536
0.215234
0.215115
0.215001
0.214892
0.214789
0.214691
0.214597
0.214508
0.214423
0.214342
0.214265
0.214193
0.214123
0.214058
0.213995
0.213936
0.21388
0.213827
0.213776
0.213729
0.213684
0.213642
0.213602
0.213564
0.213528
0.213495
0.213464
0.213435
0.213407
0.213382
0.213358
0.213336
0.213315
0.213296
0.213279
0.213263
0.213249
0.213236
0.213224
0.213214
0.213205
0.213197
0.213191
0.213185
0.213181
0.213178
0.213176
0.213175
0.213175
0.213176
0.213178
0.213181
0.213185
0.21319
0.213195
0.213201
0.213208
0.213216
0.213224
0.213233
0.213243
0.213253
0.213263
0.213275
0.213287
0.213299
0.213312
0.213325
0.213339
0.213353
0.213367
0.213382
0.213398
0.213414
0.21343
0.213447
0.213464
0.213482
0.213499
0.213515
0.226395
0.239326
0.239285
0.23925
0.239142
0.238897
0.23847
0.23784
0.237008
0.235993
0.234825
0.233537
0.232161
0.230727
0.229259
0.227778
0.226302
0.224844
0.223414
0.222019
0.220665
0.219356
0.218093
0.216878
0.215712
0.214594
0.213524
0.2125
0.211521
0.210586
0.209693
0.208841
0.208028
0.207252
0.206512
0.205805
0.205131
0.204488
0.203874
0.203289
0.20273
0.202196
0.201686
0.2012
0.200735
0.200291
0.199866
0.19946
0.199073
0.198702
0.198347
0.198008
0.197683
0.197372
0.197075
0.19679
0.196518
0.196257
0.196007
0.195767
0.195538
0.195318
0.195107
0.194905
0.194711
0.194525
0.194347
0.194176
0.194012
0.193855
0.193705
0.19356
0.193421
0.193288
0.193161
0.193038
0.192921
0.192808
0.1927
0.192596
0.192497
0.192402
0.19231
0.192223
0.192139
0.192058
0.191981
0.191907
0.191837
0.191769
0.191704
0.191642
0.191582
0.191526
0.191471
0.191419
0.19137
0.191322
0.191277
0.191234
0.191193
0.191154
0.191117
0.191081
0.191047
0.191016
0.190985
0.190957
0.19093
0.190904
0.19088
0.190858
0.190837
0.190817
0.190799
0.190782
0.190766
0.190751
0.190738
0.190726
0.190715
0.190705
0.190697
0.190689
0.190682
0.190677
0.190672
0.190668
0.190665
0.190663
0.190662
0.190661
0.190661
0.190662
0.190664
0.190666
0.190669
0.190673
0.190677
0.190682
0.190687
0.190694
0.1907
0.190708
0.190715
0.190724
0.190733
0.190742
0.190752
0.19076
0.2026
0.213981
0.213942
0.21393
0.213896
0.213798
0.2136
0.213277
0.212814
0.212212
0.211481
0.210635
0.209695
0.20868
0.207609
0.206498
0.205363
0.204217
0.203071
0.201933
0.20081
0.199707
0.198629
0.197578
0.196558
0.195569
0.194612
0.193688
0.192797
0.191938
0.191112
0.190316
0.189552
0.188818
0.188112
0.187435
0.186785
0.186161
0.185561
0.184986
0.184435
0.183905
0.183397
0.182909
0.18244
0.18199
0.181559
0.181144
0.180746
0.180363
0.179995
0.179642
0.179303
0.178977
0.178663
0.178361
0.178071
0.177792
0.177524
0.177265
0.177017
0.176778
0.176547
0.176326
0.176112
0.175906
0.175708
0.175518
0.175334
0.175157
0.174986
0.174821
0.174663
0.17451
0.174363
0.174221
0.174084
0.173952
0.173824
0.173702
0.173583
0.173469
0.173359
0.173253
0.173151
0.173052
0.172957
0.172865
0.172777
0.172692
0.17261
0.17253
0.172454
0.17238
0.17231
0.172241
0.172176
0.172112
0.172051
0.171993
0.171936
0.171882
0.171829
0.171779
0.171731
0.171684
0.17164
0.171597
0.171556
0.171516
0.171479
0.171443
0.171408
0.171376
0.171344
0.171314
0.171286
0.171259
0.171234
0.171209
0.171186
0.171165
0.171144
0.171125
0.171107
0.17109
0.171074
0.17106
0.171046
0.171033
0.171022
0.171011
0.171001
0.170992
0.170984
0.170977
0.17097
0.170965
0.17096
0.170956
0.170952
0.17095
0.170948
0.170947
0.170946
0.170946
0.170947
0.170949
0.17095
0.170952
0.181603
0.191656
0.191616
0.191608
0.191602
0.191572
0.191493
0.191344
0.191109
0.19078
0.190355
0.189837
0.189235
0.188559
0.18782
0.187031
0.186203
0.185346
0.184469
0.183582
0.182689
0.181799
0.180915
0.180041
0.179181
0.178338
0.177513
0.176707
0.175923
0.17516
0.17442
0.173701
0.173005
0.172331
0.17168
0.17105
0.170441
0.169853
0.169285
0.168737
0.168208
0.167697
0.167205
0.16673
0.166272
0.165829
0.165403
0.164992
0.164595
0.164212
0.163842
0.163486
0.163142
0.162809
0.162489
0.162179
0.161881
0.161592
0.161314
0.161044
0.160784
0.160533
0.160291
0.160056
0.159829
0.15961
0.159399
0.159194
0.158996
0.158804
0.158619
0.15844
0.158266
0.158099
0.157936
0.157779
0.157627
0.15748
0.157338
0.1572
0.157066
0.156937
0.156812
0.156691
0.156574
0.15646
0.15635
0.156244
0.156141
0.156041
0.155945
0.155851
0.155761
0.155673
0.155588
0.155506
0.155426
0.155349
0.155274
0.155202
0.155132
0.155065
0.154999
0.154936
0.154875
0.154816
0.154758
0.154703
0.15465
0.154598
0.154548
0.1545
0.154454
0.154409
0.154366
0.154325
0.154285
0.154247
0.15421
0.154175
0.154141
0.154108
0.154077
0.154048
0.154019
0.153992
0.153966
0.153941
0.153917
0.153895
0.153873
0.153853
0.153834
0.153816
0.153798
0.153782
0.153766
0.153752
0.153738
0.153726
0.153714
0.153703
0.153693
0.153684
0.153675
0.153668
0.153661
0.153655
0.153649
0.153643
0.163019
0.171927
0.171887
0.171876
0.171877
0.171873
0.171849
0.171791
0.171686
0.171523
0.171296
0.171003
0.170645
0.170224
0.169747
0.169219
0.168648
0.168041
0.167405
0.166746
0.16607
0.165383
0.16469
0.163993
0.163298
0.162607
0.161923
0.161247
0.160581
0.159927
0.159286
0.158658
0.158045
0.157447
0.156864
0.156296
0.155743
0.155206
0.154684
0.154177
0.153684
0.153207
0.152743
0.152294
0.151858
0.151436
0.151027
0.15063
0.150245
0.149873
0.149512
0.149162
0.148823
0.148495
0.148176
0.147868
0.147569
0.147279
0.146999
0.146726
0.146462
0.146207
0.145959
0.145718
0.145485
0.145259
0.145039
0.144827
0.14462
0.14442
0.144225
0.144037
0.143854
0.143676
0.143504
0.143336
0.143174
0.143016
0.142863
0.142714
0.142569
0.142429
0.142293
0.14216
0.142032
0.141907
0.141785
0.141668
0.141553
0.141442
0.141334
0.141229
0.141127
0.141028
0.140931
0.140838
0.140747
0.140658
0.140573
0.140489
0.140408
0.14033
0.140253
0.140179
0.140107
0.140037
0.139969
0.139903
0.139839