/*--------------------------------*- C++ -*----------------------------------*\
| =========                 |                                                 |
| \\      /  F ield         | OpenFOAM: The Open Source CFD Toolbox           |
|  \\    /   O peration     | Version:  5.x                                   |
|   \\  /    A nd           | Web:      www.OpenFOAM.org                      |
|    \\/     M anipulation  |                                                 |
\*---------------------------------------------------------------------------*/
FoamFile
{
    version     2.0;
    format      ascii;
    class       volScalarField;
    location    "0";
    object      k;
}
// * * * * * * * * * * * * * * * * * * * * * * * * * * * * * * * * * * * * * //

dimensions      [0 2 -2 0 0 0 0];

internalField   nonuniform List<scalar> 
103200
(
1.22545
1.1142
1.119
1.12395
1.12824
1.13191
1.13508
1.13785
1.14032
1.14253
1.14453
1.14636
1.14804
1.14959
1.15103
1.15238
1.15363
1.15481
1.15592
1.15696
1.15795
1.15888
1.15977
1.16062
1.16142
1.16219
1.16292
1.16362
1.1643
1.16494
1.16557
1.16616
1.16674
1.1673
1.16783
1.16835
1.16885
1.16934
1.16981
1.17026
1.17071
1.17114
1.17156
1.17196
1.17236
1.17275
1.17312
1.17349
1.17385
1.17419
1.17453
1.17487
1.17519
1.17551
1.17582
1.17612
1.17642
1.17671
1.177
1.17727
1.17755
1.17781
1.17808
1.17833
1.17858
1.17883
1.17907
1.17931
1.17954
1.17976
1.17999
1.18021
1.18042
1.18063
1.18083
1.18104
1.18123
1.18143
1.18162
1.1818
1.18199
1.18217
1.18234
1.18252
1.18269
1.18285
1.18301
1.18317
1.18333
1.18348
1.18363
1.18378
1.18393
1.18407
1.18421
1.18434
1.18448
1.18461
1.18474
1.18486
1.18499
1.18511
1.18523
1.18534
1.18546
1.18557
1.18568
1.18579
1.18589
1.18599
1.18609
1.18619
1.18629
1.18638
1.18648
1.18657
1.18666
1.18674
1.18683
1.18691
1.18699
1.18707
1.18714
1.18722
1.18729
1.18736
1.18743
1.18749
1.18756
1.18762
1.18768
1.18774
1.18779
1.18785
1.1879
1.18794
1.18799
1.18803
1.18807
1.18811
1.18814
1.18817
1.1882
1.18822
1.18824
1.18825
1.18826
1.18826
1.18826
1.18826
1.27497
1.18663
1.17469
1.17273
1.17336
1.17481
1.17651
1.17827
1.17998
1.18163
1.1832
1.18469
1.1861
1.18743
1.18869
1.18989
1.19102
1.1921
1.19312
1.19409
1.19502
1.19591
1.19675
1.19756
1.19834
1.19908
1.1998
1.20048
1.20114
1.20178
1.20239
1.20298
1.20355
1.2041
1.20464
1.20515
1.20565
1.20614
1.20661
1.20706
1.20751
1.20794
1.20836
1.20877
1.20917
1.20956
1.20993
1.2103
1.21066
1.21102
1.21136
1.2117
1.21202
1.21235
1.21266
1.21297
1.21327
1.21356
1.21385
1.21413
1.21441
1.21468
1.21495
1.21521
1.21546
1.21571
1.21596
1.2162
1.21643
1.21667
1.21689
1.21711
1.21733
1.21755
1.21776
1.21796
1.21816
1.21836
1.21856
1.21875
1.21893
1.21912
1.2193
1.21948
1.21965
1.21982
1.21999
1.22015
1.22031
1.22047
1.22062
1.22077
1.22092
1.22107
1.22121
1.22135
1.22149
1.22163
1.22176
1.22189
1.22202
1.22214
1.22227
1.22239
1.22251
1.22262
1.22274
1.22285
1.22296
1.22306
1.22317
1.22327
1.22337
1.22347
1.22357
1.22366
1.22376
1.22385
1.22394
1.22402
1.22411
1.22419
1.22427
1.22435
1.22443
1.2245
1.22458
1.22465
1.22472
1.22479
1.22485
1.22491
1.22497
1.22503
1.22509
1.22514
1.2252
1.22525
1.22529
1.22534
1.22538
1.22542
1.22545
1.22549
1.22551
1.22554
1.22556
1.22557
1.22559
1.2256
1.31513
1.21403
1.18493
1.17312
1.1676
1.16489
1.16362
1.16314
1.16313
1.16341
1.16386
1.16443
1.16507
1.16574
1.16644
1.16715
1.16786
1.16857
1.16926
1.16994
1.17061
1.17126
1.1719
1.17252
1.17312
1.1737
1.17427
1.17483
1.17536
1.17588
1.17639
1.17688
1.17736
1.17783
1.17828
1.17872
1.17916
1.17957
1.17998
1.18038
1.18077
1.18115
1.18152
1.18188
1.18223
1.18258
1.18292
1.18325
1.18357
1.18389
1.1842
1.1845
1.1848
1.18509
1.18537
1.18565
1.18593
1.1862
1.18646
1.18672
1.18697
1.18722
1.18747
1.1877
1.18794
1.18817
1.1884
1.18862
1.18884
1.18905
1.18926
1.18947
1.18967
1.18987
1.19006
1.19026
1.19044
1.19063
1.19081
1.19099
1.19116
1.19133
1.1915
1.19167
1.19183
1.19199
1.19215
1.1923
1.19245
1.1926
1.19275
1.19289
1.19303
1.19317
1.19331
1.19344
1.19357
1.1937
1.19382
1.19395
1.19407
1.19419
1.1943
1.19442
1.19453
1.19464
1.19475
1.19486
1.19496
1.19507
1.19517
1.19527
1.19536
1.19546
1.19555
1.19564
1.19573
1.19582
1.19591
1.19599
1.19608
1.19616
1.19624
1.19631
1.19639
1.19646
1.19653
1.1966
1.19667
1.19674
1.1968
1.19687
1.19693
1.19699
1.19705
1.1971
1.19715
1.19721
1.19726
1.1973
1.19735
1.19739
1.19743
1.19747
1.1975
1.19753
1.19756
1.19758
1.1976
1.19762
1.34042
1.25251
1.21397
1.19438
1.18324
1.17639
1.17197
1.16904
1.16707
1.16575
1.16488
1.16434
1.16404
1.1639
1.1639
1.164
1.16418
1.16441
1.16468
1.16499
1.16531
1.16566
1.16602
1.16639
1.16676
1.16714
1.16752
1.1679
1.16827
1.16864
1.16901
1.16938
1.16974
1.17009
1.17044
1.17079
1.17113
1.17146
1.17179
1.17211
1.17243
1.17274
1.17305
1.17335
1.17364
1.17394
1.17422
1.1745
1.17478
1.17505
1.17532
1.17558
1.17584
1.17609
1.17634
1.17659
1.17683
1.17706
1.1773
1.17753
1.17775
1.17797
1.17819
1.17841
1.17862
1.17882
1.17903
1.17923
1.17942
1.17962
1.17981
1.18
1.18018
1.18036
1.18054
1.18072
1.18089
1.18106
1.18122
1.18139
1.18155
1.18171
1.18186
1.18201
1.18216
1.18231
1.18246
1.1826
1.18274
1.18288
1.18302
1.18315
1.18328
1.18341
1.18354
1.18366
1.18378
1.1839
1.18402
1.18414
1.18425
1.18436
1.18447
1.18458
1.18469
1.18479
1.1849
1.185
1.1851
1.18519
1.18529
1.18538
1.18548
1.18557
1.18566
1.18574
1.18583
1.18592
1.186
1.18608
1.18616
1.18624
1.18631
1.18639
1.18646
1.18653
1.1866
1.18667
1.18674
1.18681
1.18687
1.18693
1.18699
1.18705
1.18711
1.18716
1.18722
1.18727
1.18732
1.18737
1.18742
1.18746
1.1875
1.18754
1.18758
1.18762
1.18765
1.18768
1.18771
1.18773
1.35475
1.2874
1.24612
1.22157
1.20603
1.19559
1.18825
1.18293
1.17899
1.17601
1.17373
1.17198
1.17064
1.1696
1.1688
1.16819
1.16774
1.16741
1.16719
1.16704
1.16696
1.16694
1.16696
1.16703
1.16712
1.16724
1.16738
1.16753
1.16771
1.16789
1.16809
1.16829
1.1685
1.16871
1.16893
1.16915
1.16937
1.16959
1.16982
1.17004
1.17027
1.17049
1.17071
1.17094
1.17116
1.17138
1.1716
1.17182
1.17203
1.17224
1.17246
1.17267
1.17287
1.17308
1.17328
1.17348
1.17368
1.17388
1.17407
1.17426
1.17445
1.17464
1.17482
1.175
1.17518
1.17536
1.17553
1.17571
1.17588
1.17604
1.17621
1.17637
1.17653
1.17669
1.17685
1.177
1.17715
1.1773
1.17745
1.17759
1.17774
1.17788
1.17802
1.17815
1.17829
1.17842
1.17855
1.17868
1.1788
1.17893
1.17905
1.17917
1.17929
1.17941
1.17952
1.17964
1.17975
1.17986
1.17996
1.18007
1.18018
1.18028
1.18038
1.18048
1.18058
1.18067
1.18077
1.18086
1.18095
1.18104
1.18113
1.18122
1.18131
1.18139
1.18148
1.18156
1.18164
1.18172
1.18179
1.18187
1.18195
1.18202
1.18209
1.18216
1.18223
1.1823
1.18237
1.18243
1.1825
1.18256
1.18262
1.18268
1.18274
1.1828
1.18286
1.18291
1.18296
1.18302
1.18307
1.18311
1.18316
1.18321
1.18325
1.18329
1.18333
1.18337
1.1834
1.18344
1.18347
1.1835
1.36226
1.31527
1.2763
1.24958
1.23114
1.21793
1.20816
1.20072
1.19494
1.19038
1.18672
1.18375
1.18134
1.17935
1.17771
1.17634
1.17521
1.17427
1.17349
1.17284
1.1723
1.17186
1.1715
1.17121
1.17097
1.17079
1.17065
1.17055
1.17048
1.17044
1.17043
1.17044
1.17046
1.1705
1.17056
1.17063
1.17071
1.1708
1.17089
1.171
1.17111
1.17123
1.17135
1.17148
1.17161
1.17174
1.17187
1.17201
1.17215
1.17229
1.17243
1.17258
1.17272
1.17287
1.17301
1.17316
1.1733
1.17345
1.17359
1.17373
1.17388
1.17402
1.17416
1.1743
1.17444
1.17458
1.17472
1.17485
1.17499
1.17512
1.17526
1.17539
1.17552
1.17565
1.17578
1.1759
1.17603
1.17615
1.17628
1.1764
1.17652
1.17663
1.17675
1.17687
1.17698
1.17709
1.1772
1.17731
1.17742
1.17753
1.17763
1.17774
1.17784
1.17794
1.17804
1.17814
1.17824
1.17833
1.17843
1.17852
1.17861
1.1787
1.17879
1.17888
1.17897
1.17905
1.17914
1.17922
1.1793
1.17938
1.17946
1.17954
1.17962
1.1797
1.17977
1.17985
1.17992
1.17999
1.18006
1.18013
1.1802
1.18027
1.18033
1.1804
1.18046
1.18053
1.18059
1.18065
1.18071
1.18077
1.18083
1.18088
1.18094
1.18099
1.18105
1.1811
1.18115
1.1812
1.18125
1.18129
1.18134
1.18138
1.18143
1.18147
1.18151
1.18155
1.18158
1.18162
1.18165
1.18168
1.36594
1.3358
1.30248
1.27605
1.25624
1.24123
1.22962
1.22047
1.21312
1.20713
1.2022
1.19809
1.19464
1.19172
1.18923
1.1871
1.18527
1.18369
1.18233
1.18115
1.18012
1.17922
1.17844
1.17776
1.17717
1.17665
1.1762
1.17581
1.17547
1.17517
1.17492
1.1747
1.17452
1.17436
1.17423
1.17413
1.17404
1.17397
1.17392
1.17389
1.17387
1.17386
1.17386
1.17387
1.17389
1.17392
1.17395
1.174
1.17404
1.1741
1.17416
1.17422
1.17429
1.17436
1.17443
1.17451
1.17459
1.17467
1.17476
1.17484
1.17493
1.17502
1.17511
1.1752
1.17529
1.17538
1.17548
1.17557
1.17566
1.17576
1.17585
1.17595
1.17604
1.17613
1.17623
1.17632
1.17641
1.1765
1.1766
1.17669
1.17678
1.17687
1.17696
1.17705
1.17714
1.17722
1.17731
1.1774
1.17748
1.17757
1.17765
1.17774
1.17782
1.1779
1.17798
1.17806
1.17814
1.17822
1.1783
1.17837
1.17845
1.17852
1.1786
1.17867
1.17874
1.17881
1.17888
1.17895
1.17902
1.17909
1.17916
1.17923
1.17929
1.17936
1.17942
1.17949
1.17955
1.17961
1.17967
1.17974
1.1798
1.17985
1.17991
1.17997
1.18003
1.18008
1.18014
1.18019
1.18025
1.1803
1.18035
1.1804
1.18045
1.1805
1.18055
1.1806
1.18065
1.18069
1.18074
1.18078
1.18082
1.18086
1.1809
1.18094
1.18098
1.18102
1.18105
1.18109
1.18112
1.18115
1.3676
1.34993
1.32385
1.2997
1.27997
1.26414
1.25139
1.24099
1.23241
1.22524
1.21921
1.21408
1.20968
1.20589
1.2026
1.19973
1.19722
1.195
1.19305
1.19133
1.18979
1.18843
1.18721
1.18612
1.18515
1.18427
1.18349
1.18279
1.18215
1.18158
1.18107
1.18061
1.18019
1.17982
1.17948
1.17918
1.1789
1.17866
1.17844
1.17825
1.17807
1.17792
1.17778
1.17766
1.17756
1.17746
1.17739
1.17732
1.17726
1.17722
1.17718
1.17715
1.17713
1.17711
1.1771
1.1771
1.17711
1.17711
1.17713
1.17715
1.17717
1.17719
1.17722
1.17725
1.17729
1.17732
1.17736
1.1774
1.17745
1.17749
1.17754
1.17759
1.17764
1.17769
1.17774
1.17779
1.17785
1.1779
1.17796
1.17801
1.17807
1.17813
1.17818
1.17824
1.1783
1.17836
1.17841
1.17847
1.17853
1.17859
1.17865
1.1787
1.17876
1.17882
1.17888
1.17893
1.17899
1.17905
1.1791
1.17916
1.17922
1.17927
1.17933
1.17938
1.17944
1.17949
1.17955
1.1796
1.17965
1.17971
1.17976
1.17981
1.17986
1.17991
1.17997
1.18002
1.18007
1.18012
1.18017
1.18022
1.18027
1.18031
1.18036
1.18041
1.18046
1.18051
1.18055
1.1806
1.18064
1.18069
1.18073
1.18078
1.18082
1.18086
1.1809
1.18094
1.18098
1.18102
1.18106
1.1811
1.18114
1.18118
1.18121
1.18125
1.18128
1.18132
1.18135
1.18138
1.18141
1.18144
1.36824
1.35902
1.34029
1.31982
1.30142
1.28575
1.27255
1.26143
1.25201
1.24397
1.23705
1.23107
1.22586
1.2213
1.21728
1.21373
1.21057
1.20776
1.20524
1.20298
1.20095
1.19912
1.19746
1.19596
1.1946
1.19336
1.19223
1.1912
1.19026
1.1894
1.18861
1.18788
1.18722
1.18661
1.18605
1.18553
1.18506
1.18462
1.18422
1.18385
1.18351
1.18319
1.18291
1.18264
1.18239
1.18217
1.18196
1.18177
1.1816
1.18144
1.18129
1.18116
1.18103
1.18092
1.18082
1.18073
1.18064
1.18057
1.1805
1.18044
1.18039
1.18034
1.1803
1.18026
1.18023
1.1802
1.18018
1.18016
1.18014
1.18013
1.18013
1.18012
1.18012
1.18012
1.18012
1.18013
1.18014
1.18015
1.18016
1.18017
1.18019
1.18021
1.18022
1.18024
1.18027
1.18029
1.18031
1.18034
1.18036
1.18039
1.18041
1.18044
1.18047
1.1805
1.18053
1.18056
1.18059
1.18062
1.18065
1.18068
1.18072
1.18075
1.18078
1.18081
1.18085
1.18088
1.18091
1.18095
1.18098
1.18101
1.18105
1.18108
1.18112
1.18115
1.18119
1.18122
1.18126
1.18129
1.18133
1.18137
1.1814
1.18144
1.18147
1.18151
1.18154
1.18158
1.18161
1.18165
1.18168
1.18172
1.18175
1.18179
1.18182
1.18185
1.18189
1.18192
1.18195
1.18199
1.18202
1.18205
1.18208
1.18211
1.18214
1.18217
1.1822
1.18223
1.18226
1.18229
1.18231
1.18234
1.3684
1.36445
1.3522
1.33613
1.32004
1.30537
1.29243
1.28113
1.27129
1.2627
1.25517
1.24854
1.24269
1.23748
1.23284
1.22869
1.22496
1.2216
1.21856
1.21581
1.2133
1.21102
1.20894
1.20703
1.20529
1.20368
1.20221
1.20085
1.19959
1.19843
1.19736
1.19637
1.19544
1.19459
1.19379
1.19306
1.19237
1.19173
1.19113
1.19057
1.19005
1.18957
1.18911
1.18869
1.18829
1.18792
1.18757
1.18725
1.18694
1.18666
1.18639
1.18614
1.18591
1.18569
1.18548
1.18529
1.18511
1.18494
1.18478
1.18463
1.18449
1.18436
1.18424
1.18413
1.18402
1.18392
1.18383
1.18374
1.18366
1.18359
1.18352
1.18345
1.18339
1.18333
1.18328
1.18323
1.18319
1.18315
1.18311
1.18308
1.18304
1.18302
1.18299
1.18297
1.18295
1.18293
1.18291
1.1829
1.18288
1.18287
1.18286
1.18286
1.18285
1.18285
1.18284
1.18284
1.18284
1.18284
1.18284
1.18285
1.18285
1.18285
1.18286
1.18287
1.18287
1.18288
1.18289
1.1829
1.18291
1.18293
1.18294
1.18295
1.18297
1.18298
1.183
1.18301
1.18303
1.18305
1.18306
1.18308
1.1831
1.18312
1.18314
1.18316
1.18318
1.1832
1.18322
1.18325
1.18327
1.18329
1.18331
1.18333
1.18336
1.18338
1.1834
1.18342
1.18345
1.18347
1.18349
1.18351
1.18354
1.18356
1.18358
1.1836
1.18363
1.18365
1.18367
1.18369
1.18371
1.18373
1.36837
1.36743
1.36029
1.34865
1.33549
1.32253
1.31047
1.29953
1.28971
1.28092
1.27306
1.26603
1.25972
1.25403
1.2489
1.24426
1.24005
1.23621
1.23271
1.22951
1.22658
1.22388
1.2214
1.21912
1.217
1.21505
1.21324
1.21156
1.20999
1.20854
1.20718
1.20592
1.20474
1.20363
1.2026
1.20163
1.20072
1.19987
1.19907
1.19832
1.19761
1.19695
1.19632
1.19573
1.19517
1.19464
1.19415
1.19368
1.19324
1.19282
1.19242
1.19204
1.19169
1.19135
1.19103
1.19073
1.19045
1.19017
1.18992
1.18967
1.18944
1.18922
1.18901
1.18881
1.18862
1.18844
1.18827
1.18811
1.18796
1.18781
1.18767
1.18754
1.18741
1.18729
1.18718
1.18707
1.18696
1.18687
1.18677
1.18668
1.1866
1.18652
1.18644
1.18637
1.1863
1.18623
1.18617
1.18611
1.18606
1.186
1.18595
1.18591
1.18586
1.18582
1.18578
1.18574
1.1857
1.18567
1.18564
1.18561
1.18558
1.18555
1.18553
1.1855
1.18548
1.18546
1.18544
1.18542
1.18541
1.18539
1.18538
1.18537
1.18536
1.18535
1.18534
1.18534
1.18533
1.18533
1.18533
1.18533
1.18532
1.18532
1.18533
1.18533
1.18533
1.18534
1.18534
1.18535
1.18535
1.18536
1.18537
1.18537
1.18538
1.18539
1.1854
1.18541
1.18542
1.18543
1.18544
1.18545
1.18546
1.18548
1.18549
1.1855
1.18551
1.18553
1.18554
1.18555
1.18556
1.18557
1.3683
1.36889
1.36538
1.35772
1.34771
1.33693
1.32627
1.31617
1.30678
1.29816
1.29028
1.2831
1.27655
1.27057
1.2651
1.2601
1.25551
1.2513
1.24742
1.24384
1.24054
1.23748
1.23464
1.23201
1.22956
1.22728
1.22516
1.22317
1.22131
1.21958
1.21795
1.21642
1.21498
1.21363
1.21236
1.21117
1.21004
1.20897
1.20797
1.20702
1.20612
1.20527
1.20446
1.2037
1.20298
1.20229
1.20164
1.20102
1.20043
1.19987
1.19934
1.19883
1.19835
1.19789
1.19745
1.19703
1.19663
1.19625
1.19588
1.19554
1.1952
1.19489
1.19458
1.19429
1.19401
1.19375
1.19349
1.19325
1.19301
1.19279
1.19257
1.19236
1.19217
1.19197
1.19179
1.19162
1.19145
1.19129
1.19113
1.19098
1.19084
1.1907
1.19057
1.19044
1.19032
1.1902
1.19009
1.18998
1.18987
1.18977
1.18968
1.18958
1.18949
1.18941
1.18932
1.18924
1.18917
1.18909
1.18902
1.18896
1.18889
1.18883
1.18877
1.18871
1.18865
1.1886
1.18855
1.1885
1.18845
1.18841
1.18837
1.18833
1.18829
1.18825
1.18822
1.18819
1.18816
1.18813
1.1881
1.18808
1.18806
1.18803
1.18801
1.18799
1.18798
1.18796
1.18795
1.18793
1.18792
1.18791
1.1879
1.18789
1.18788
1.18787
1.18787
1.18786
1.18786
1.18785
1.18785
1.18785
1.18784
1.18784
1.18784
1.18784
1.18784
1.18785
1.18785
1.18785
1.18785
1.18785
1.36823
1.36946
1.3683
1.36386
1.35686
1.34848
1.33958
1.3307
1.32214
1.31402
1.30642
1.29935
1.29279
1.28671
1.28108
1.27586
1.27103
1.26655
1.26239
1.25852
1.25492
1.25156
1.24843
1.2455
1.24276
1.24019
1.23778
1.23552
1.23339
1.23139
1.22951
1.22773
1.22605
1.22447
1.22297
1.22155
1.22021
1.21894
1.21773
1.21658
1.2155
1.21446
1.21348
1.21254
1.21165
1.2108
1.20999
1.20922
1.20848
1.20777
1.2071
1.20646
1.20584
1.20525
1.20469
1.20415
1.20363
1.20313
1.20266
1.2022
1.20176
1.20134
1.20094
1.20055
1.20018
1.19982
1.19947
1.19914
1.19882
1.19851
1.19821
1.19792
1.19765
1.19738
1.19712
1.19688
1.19664
1.19641
1.19618
1.19597
1.19576
1.19556
1.19536
1.19518
1.195
1.19482
1.19465
1.19449
1.19433
1.19418
1.19403
1.19389
1.19375
1.19361
1.19348
1.19336
1.19324
1.19312
1.193
1.19289
1.19279
1.19268
1.19259
1.19249
1.1924
1.19231
1.19222
1.19213
1.19205
1.19198
1.1919
1.19183
1.19176
1.19169
1.19163
1.19157
1.19151
1.19145
1.1914
1.19134
1.1913
1.19125
1.1912
1.19116
1.19112
1.19108
1.19104
1.19101
1.19097
1.19094
1.19091
1.19088
1.19085
1.19082
1.1908
1.19078
1.19075
1.19073
1.19071
1.19069
1.19068
1.19066
1.19064
1.19063
1.19062
1.1906
1.19059
1.19058
1.19057
1.19056
1.36819
1.36952
1.36977
1.36768
1.36328
1.35726
1.35029
1.34291
1.33546
1.32816
1.32112
1.31442
1.30807
1.3021
1.29649
1.29123
1.2863
1.28167
1.27734
1.27328
1.26947
1.26589
1.26252
1.25936
1.25638
1.25357
1.25092
1.24842
1.24606
1.24383
1.24171
1.23971
1.23781
1.23601
1.2343
1.23267
1.23113
1.22966
1.22826
1.22693
1.22565
1.22444
1.22328
1.22218
1.22112
1.22011
1.21914
1.21822
1.21733
1.21648
1.21567
1.21488
1.21414
1.21342
1.21272
1.21206
1.21142
1.21081
1.21021
1.20965
1.2091
1.20857
1.20806
1.20757
1.2071
1.20664
1.2062
1.20577
1.20536
1.20497
1.20458
1.20421
1.20385
1.2035
1.20317
1.20284
1.20253
1.20222
1.20193
1.20164
1.20137
1.2011
1.20084
1.20059
1.20034
1.2001
1.19987
1.19965
1.19943
1.19922
1.19902
1.19882
1.19863
1.19844
1.19826
1.19809
1.19792
1.19775
1.19759
1.19743
1.19728
1.19713
1.19699
1.19685
1.19672
1.19659
1.19646
1.19634
1.19622
1.1961
1.19599
1.19588
1.19578
1.19567
1.19558
1.19548
1.19539
1.1953
1.19522
1.19513
1.19506
1.19498
1.19491
1.19483
1.19477
1.1947
1.19464
1.19458
1.19452
1.19446
1.19441
1.19435
1.1943
1.19426
1.19421
1.19416
1.19412
1.19408
1.19404
1.194
1.19397
1.19393
1.1939
1.19387
1.19384
1.19381
1.19378
1.19375
1.19373
1.1937
1.36816
1.36937
1.37033
1.36979
1.36745
1.36353
1.35847
1.35271
1.34658
1.34032
1.33408
1.32798
1.32208
1.31642
1.31101
1.30587
1.30099
1.29636
1.29198
1.28783
1.28391
1.2802
1.27668
1.27335
1.2702
1.26721
1.26438
1.26169
1.25913
1.25671
1.2544
1.2522
1.25011
1.24812
1.24622
1.24441
1.24268
1.24103
1.23945
1.23794
1.2365
1.23512
1.23379
1.23253
1.23131
1.23015
1.22903
1.22795
1.22692
1.22593
1.22498
1.22406
1.22318
1.22233
1.22151
1.22072
1.21996
1.21923
1.21852
1.21784
1.21718
1.21654
1.21592
1.21533
1.21475
1.2142
1.21366
1.21314
1.21263
1.21215
1.21167
1.21121
1.21077
1.21034
1.20992
1.20951
1.20912
1.20874
1.20837
1.20801
1.20766
1.20732
1.20699
1.20667
1.20635
1.20605
1.20576
1.20547
1.20519
1.20492
1.20466
1.2044
1.20415
1.20391
1.20367
1.20344
1.20322
1.203
1.20279
1.20258
1.20238
1.20219
1.20199
1.20181
1.20163
1.20145
1.20128
1.20112
1.20095
1.2008
1.20065
1.2005
1.20035
1.20021
1.20008
1.19995
1.19982
1.1997
1.19958
1.19946
1.19935
1.19924
1.19914
1.19903
1.19893
1.19884
1.19875
1.19866
1.19857
1.19849
1.19841
1.19833
1.19825
1.19818
1.19811
1.19804
1.19797
1.19791
1.19785
1.19779
1.19773
1.19768
1.19762
1.19757
1.19752
1.19747
1.19743
1.19738
1.19734
1.19729
1.36817
1.36913
1.37037
1.37076
1.36988
1.36767
1.36434
1.36018
1.35544
1.35036
1.3451
1.33979
1.33453
1.32936
1.32433
1.31947
1.31479
1.3103
1.306
1.30189
1.29797
1.29422
1.29065
1.28724
1.28399
1.28089
1.27793
1.27511
1.27241
1.26984
1.26738
1.26503
1.26278
1.26063
1.25857
1.2566
1.25472
1.25291
1.25117
1.24951
1.24791
1.24638
1.2449
1.24349
1.24213
1.24082
1.23956
1.23834
1.23717
1.23605
1.23496
1.23391
1.2329
1.23193
1.23099
1.23008
1.2292
1.22835
1.22752
1.22673
1.22596
1.22521
1.22449
1.22379
1.22312
1.22246
1.22182
1.22121
1.22061
1.22003
1.21946
1.21891
1.21838
1.21786
1.21736
1.21687
1.2164
1.21594
1.21549
1.21505
1.21462
1.21421
1.21381
1.21341
1.21303
1.21266
1.2123
1.21195
1.2116
1.21127
1.21094
1.21062
1.21031
1.21001
1.20972
1.20943
1.20915
1.20888
1.20861
1.20835
1.2081
1.20785
1.20761
1.20737
1.20714
1.20692
1.2067
1.20649
1.20628
1.20608
1.20588
1.20569
1.20551
1.20533
1.20515
1.20498
1.20481
1.20465
1.20449
1.20434
1.20419
1.20405
1.20391
1.20377
1.20364
1.20351
1.20339
1.20327
1.20315
1.20303
1.20292
1.20282
1.20271
1.20261
1.20251
1.20242
1.20233
1.20224
1.20215
1.20207
1.20198
1.2019
1.20183
1.20175
1.20168
1.20161
1.20155
1.20148
1.20142
1.20135
1.36819
1.3689
1.37015
1.37102
1.37107
1.37014
1.36824
1.36551
1.36212
1.35826
1.35408
1.34969
1.3452
1.34068
1.33619
1.33177
1.32744
1.32322
1.31913
1.31518
1.31137
1.30769
1.30415
1.30076
1.29749
1.29435
1.29134
1.28845
1.28567
1.28301
1.28045
1.27799
1.27564
1.27337
1.27119
1.2691
1.26708
1.26514
1.26328
1.26149
1.25976
1.25809
1.25649
1.25494
1.25345
1.25201
1.25063
1.24929
1.24799
1.24674
1.24553
1.24436
1.24323
1.24214
1.24108
1.24006
1.23907
1.2381
1.23717
1.23627
1.23539
1.23454
1.23372
1.23292
1.23214
1.23139
1.23065
1.22994
1.22925
1.22857
1.22792
1.22728
1.22666
1.22606
1.22547
1.2249
1.22434
1.2238
1.22327
1.22275
1.22225
1.22176
1.22129
1.22082
1.22037
1.21992
1.21949
1.21907
1.21866
1.21826
1.21787
1.21749
1.21711
1.21675
1.21639
1.21605
1.21571
1.21538
1.21505
1.21474
1.21443
1.21413
1.21383
1.21354
1.21326
1.21299
1.21272
1.21246
1.2122
1.21196
1.21171
1.21148
1.21124
1.21102
1.2108
1.21059
1.21038
1.21017
1.20998
1.20978
1.2096
1.20941
1.20923
1.20906
1.20889
1.20873
1.20857
1.20841
1.20826
1.20811
1.20797
1.20783
1.2077
1.20757
1.20744
1.20731
1.20719
1.20707
1.20696
1.20685
1.20674
1.20663
1.20653
1.20643
1.20634
1.20624
1.20615
1.20606
1.20598
1.20589
1.36821
1.36869
1.36982
1.37087
1.37145
1.37137
1.37055
1.36901
1.36683
1.36413
1.36102
1.35761
1.35398
1.35022
1.34639
1.34253
1.33867
1.33486
1.3311
1.32743
1.32383
1.32033
1.31694
1.31364
1.31045
1.30736
1.30437
1.30148
1.29869
1.296
1.2934
1.29089
1.28847
1.28613
1.28388
1.2817
1.2796
1.27757
1.27561
1.27371
1.27189
1.27012
1.26841
1.26676
1.26516
1.26361
1.26211
1.26066
1.25926
1.2579
1.25659
1.25531
1.25407
1.25287
1.25171
1.25058
1.24948
1.24842
1.24739
1.24638
1.24541
1.24446
1.24354
1.24264
1.24177
1.24092
1.24009
1.23929
1.23851
1.23774
1.237
1.23628
1.23557
1.23488
1.23421
1.23356
1.23292
1.2323
1.23169
1.2311
1.23052
1.22995
1.2294
1.22886
1.22834
1.22782
1.22732
1.22683
1.22635
1.22588
1.22543
1.22498
1.22454
1.22411
1.2237
1.22329
1.22289
1.2225
1.22211
1.22174
1.22138
1.22102
1.22067
1.22033
1.21999
1.21966
1.21934
1.21903
1.21873
1.21843
1.21814
1.21785
1.21757
1.2173
1.21703
1.21677
1.21652
1.21627
1.21603
1.2158
1.21557
1.21534
1.21513
1.21491
1.21471
1.2145
1.21431
1.21411
1.21392
1.21374
1.21356
1.21339
1.21322
1.21306
1.21289
1.21274
1.21258
1.21244
1.21229
1.21215
1.21201
1.21188
1.21175
1.21162
1.2115
1.21138
1.21126
1.21115
1.21103
1.21092
1.36824
1.36853
1.36949
1.37053
1.37136
1.37179
1.3717
1.37106
1.36987
1.36818
1.36607
1.36361
1.36087
1.35792
1.35481
1.3516
1.34832
1.34501
1.34169
1.33839
1.33512
1.3319
1.32874
1.32564
1.3226
1.31964
1.31676
1.31395
1.31122
1.30857
1.30599
1.30349
1.30107
1.29871
1.29643
1.29422
1.29207
1.28999
1.28797
1.28602
1.28412
1.28228
1.2805
1.27877
1.27709
1.27546
1.27388
1.27234
1.27085
1.2694
1.268
1.26663
1.2653
1.26401
1.26276
1.26154
1.26035
1.2592
1.25807
1.25698
1.25591
1.25488
1.25387
1.25288
1.25192
1.25098
1.25007
1.24918
1.24832
1.24747
1.24664
1.24584
1.24505
1.24428
1.24353
1.2428
1.24208
1.24138
1.2407
1.24003
1.23938
1.23874
1.23811
1.2375
1.23691
1.23632
1.23575
1.23519
1.23465
1.23411
1.23359
1.23308
1.23257
1.23208
1.2316
1.23113
1.23067
1.23022
1.22978
1.22935
1.22892
1.22851
1.2281
1.22771
1.22732
1.22694
1.22656
1.2262
1.22584
1.22549
1.22515
1.22481
1.22449
1.22417
1.22385
1.22355
1.22325
1.22295
1.22267
1.22239
1.22211
1.22185
1.22159
1.22133
1.22108
1.22084
1.2206
1.22037
1.22014
1.21992
1.21971
1.21949
1.21929
1.21909
1.21889
1.2187
1.21851
1.21833
1.21815
1.21798
1.21781
1.21765
1.21748
1.21733
1.21717
1.21702
1.21688
1.21674
1.2166
1.21645
1.36828
1.36841
1.36918
1.37013
1.37103
1.37171
1.37206
1.37203
1.37158
1.37072
1.36946
1.36785
1.36595
1.36379
1.36143
1.35891
1.35626
1.35352
1.35072
1.34788
1.34503
1.34217
1.33933
1.33651
1.33372
1.33098
1.32828
1.32562
1.32303
1.32048
1.31799
1.31557
1.31319
1.31088
1.30863
1.30643
1.30429
1.3022
1.30017
1.29819
1.29627
1.2944
1.29257
1.2908
1.28907
1.28739
1.28575
1.28416
1.28261
1.28109
1.27962
1.27819
1.27679
1.27543
1.2741
1.27281
1.27155
1.27032
1.26912
1.26795
1.2668
1.26569
1.2646
1.26354
1.2625
1.26149
1.2605
1.25954
1.25859
1.25767
1.25677
1.25589
1.25503
1.25418
1.25336
1.25255
1.25176
1.25099
1.25024
1.2495
1.24878
1.24807
1.24737
1.2467
1.24603
1.24538
1.24474
1.24412
1.24351
1.24291
1.24232
1.24174
1.24118
1.24063
1.24008
1.23955
1.23903
1.23852
1.23802
1.23753
1.23705
1.23658
1.23612
1.23567
1.23522
1.23479
1.23436
1.23394
1.23353
1.23313
1.23274
1.23235
1.23197
1.2316
1.23124
1.23089
1.23054
1.2302
1.22987
1.22954
1.22922
1.22891
1.22861
1.22831
1.22802
1.22773
1.22745
1.22718
1.22691
1.22665
1.2264
1.22615
1.2259
1.22566
1.22543
1.2252
1.22498
1.22476
1.22455
1.22434
1.22414
1.22394
1.22375
1.22356
1.22337
1.22319
1.22302
1.22284
1.22267
1.2225
1.36831
1.36832
1.36892
1.36974
1.3706
1.37136
1.37194
1.37228
1.37233
1.37207
1.37148
1.37059
1.36942
1.36799
1.36634
1.36449
1.36249
1.36035
1.35811
1.35579
1.35341
1.35098
1.34853
1.34607
1.3436
1.34114
1.33869
1.33627
1.33387
1.3315
1.32917
1.32688
1.32462
1.32241
1.32024
1.31811
1.31603
1.31399
1.31199
1.31004
1.30813
1.30627
1.30444
1.30266
1.30092
1.29922
1.29756
1.29594
1.29435
1.29281
1.2913
1.28982
1.28838
1.28697
1.28559
1.28424
1.28293
1.28164
1.28039
1.27916
1.27796
1.27678
1.27563
1.27451
1.27341
1.27233
1.27128
1.27025
1.26924
1.26825
1.26729
1.26634
1.26541
1.2645
1.26361
1.26274
1.26189
1.26105
1.26023
1.25943
1.25864
1.25787
1.25711
1.25637
1.25564
1.25493
1.25423
1.25354
1.25287
1.25221
1.25156
1.25093
1.2503
1.24969
1.24909
1.2485
1.24793
1.24736
1.2468
1.24626
1.24572
1.24519
1.24468
1.24417
1.24367
1.24318
1.2427
1.24223
1.24177
1.24132
1.24088
1.24044
1.24001
1.2396
1.23918
1.23878
1.23839
1.238
1.23762
1.23725
1.23688
1.23653
1.23618
1.23584
1.2355
1.23517
1.23485
1.23453
1.23423
1.23392
1.23363
1.23334
1.23306
1.23278
1.23251
1.23224
1.23198
1.23173
1.23148
1.23123
1.23099
1.23076
1.23053
1.23031
1.23009
1.22988
1.22967
1.22947
1.22926
1.22906
1.36834
1.36826
1.36871
1.36939
1.37015
1.3709
1.37157
1.3721
1.37244
1.37258
1.37247
1.37213
1.37154
1.37073
1.3697
1.36848
1.36708
1.36553
1.36386
1.36207
1.36019
1.35824
1.35622
1.35416
1.35207
1.34996
1.34783
1.34569
1.34356
1.34143
1.33931
1.33721
1.33513
1.33308
1.33105
1.32904
1.32707
1.32513
1.32322
1.32134
1.31949
1.31768
1.3159
1.31415
1.31244
1.31076
1.30911
1.30749
1.30591
1.30436
1.30284
1.30135
1.29989
1.29846
1.29706
1.29568
1.29434
1.29302
1.29173
1.29046
1.28922
1.288
1.28681
1.28564
1.2845
1.28337
1.28227
1.28119
1.28013
1.27909
1.27808
1.27708
1.2761
1.27513
1.27419
1.27326
1.27236
1.27146
1.27059
1.26973
1.26889
1.26806
1.26725
1.26645
1.26567
1.2649
1.26414
1.2634
1.26267
1.26196
1.26125
1.26056
1.25989
1.25922
1.25857
1.25792
1.25729
1.25667
1.25606
1.25546
1.25487
1.2543
1.25373
1.25317
1.25262
1.25208
1.25155
1.25103
1.25052
1.25002
1.24953
1.24904
1.24857
1.2481
1.24764
1.24719
1.24675
1.24632
1.24589
1.24548
1.24507
1.24467
1.24427
1.24389
1.24351
1.24314
1.24277
1.24241
1.24206
1.24172
1.24138
1.24105
1.24073
1.24041
1.2401
1.2398
1.2395
1.23921
1.23892
1.23864
1.23837
1.2381
1.23783
1.23758
1.23732
1.23708
1.23684
1.2366
1.23636
1.23613
1.36837
1.36823
1.36854
1.36909
1.36975
1.37043
1.37109
1.37168
1.37217
1.37253
1.37274
1.37277
1.37262
1.37228
1.37176
1.37107
1.37021
1.3692
1.36805
1.36677
1.36539
1.36392
1.36236
1.36073
1.35905
1.35731
1.35554
1.35374
1.35192
1.35008
1.34823
1.34638
1.34453
1.34268
1.34084
1.33902
1.3372
1.33541
1.33363
1.33187
1.33013
1.32841
1.32672
1.32505
1.3234
1.32178
1.32019
1.31862
1.31707
1.31555
1.31405
1.31258
1.31114
1.30972
1.30832
1.30695
1.3056
1.30427
1.30297
1.30169
1.30043
1.2992
1.29798
1.29679
1.29562
1.29447
1.29334
1.29222
1.29113
1.29006
1.289
1.28797
1.28695
1.28595
1.28496
1.284
1.28305
1.28211
1.28119
1.28029
1.2794
1.27853
1.27767
1.27683
1.276
1.27518
1.27438
1.27359
1.27282
1.27205
1.2713
1.27056
1.26984
1.26913
1.26842
1.26773
1.26705
1.26639
1.26573
1.26508
1.26445
1.26382
1.26321
1.2626
1.26201
1.26142
1.26085
1.26028
1.25972
1.25918
1.25864
1.25811
1.25759
1.25708
1.25657
1.25608
1.25559
1.25512
1.25465
1.25419
1.25373
1.25329
1.25285
1.25242
1.252
1.25159
1.25118
1.25078
1.25039
1.25001
1.24963
1.24926
1.2489
1.24854
1.24819
1.24785
1.24752
1.24719
1.24686
1.24655
1.24623
1.24593
1.24563
1.24534
1.24505
1.24477
1.24449
1.24422
1.24395
1.24369
1.36839
1.36821
1.36842
1.36885
1.3694
1.36999
1.37059
1.37118
1.37171
1.37218
1.37255
1.37282
1.37295
1.37295
1.37281
1.37253
1.3721
1.37154
1.37085
1.37004
1.36912
1.3681
1.36698
1.36578
1.36451
1.36317
1.36178
1.36034
1.35886
1.35734
1.3558
1.35423
1.35265
1.35106
1.34946
1.34785
1.34624
1.34464
1.34303
1.34144
1.33985
1.33828
1.33671
1.33516
1.33362
1.3321
1.33059
1.32911
1.32763
1.32618
1.32474
1.32333
1.32193
1.32055
1.31919
1.31784
1.31652
1.31522
1.31393
1.31266
1.31142
1.31019
1.30897
1.30778
1.30661
1.30545
1.30431
1.30319
1.30208
1.30099
1.29992
1.29886
1.29782
1.2968
1.29579
1.2948
1.29382
1.29286
1.29191
1.29098
1.29006
1.28915
1.28826
1.28738
1.28652
1.28567
1.28483
1.284
1.28319
1.28239
1.2816
1.28083
1.28006
1.27931
1.27857
1.27784
1.27712
1.27641
1.27572
1.27503
1.27435
1.27369
1.27303
1.27239
1.27175
1.27112
1.27051
1.2699
1.2693
1.26871
1.26813
1.26756
1.267
1.26645
1.26591
1.26537
1.26485
1.26433
1.26382
1.26332
1.26283
1.26234
1.26186
1.2614
1.26093
1.26048
1.26004
1.2596
1.25917
1.25875
1.25833
1.25792
1.25752
1.25713
1.25674
1.25636
1.25599
1.25562
1.25526
1.25491
1.25456
1.25422
1.25389
1.25356
1.25324
1.25292
1.25261
1.25231
1.25201
1.25171
1.36842
1.36821
1.36833
1.36866
1.3691
1.36961
1.37014
1.37067
1.37119
1.37168
1.37212
1.3725
1.3728
1.37302
1.37313
1.37314
1.37304
1.37283
1.37251
1.37208
1.37156
1.37093
1.37021
1.36941
1.36853
1.36757
1.36655
1.36548
1.36434
1.36317
1.36195
1.36069
1.35941
1.35809
1.35676
1.35541
1.35404
1.35266
1.35127
1.34988
1.34848
1.34708
1.34568
1.34429
1.3429
1.34151
1.34013
1.33876
1.3374
1.33605
1.33471
1.33338
1.33206
1.33075
1.32946
1.32818
1.32691
1.32566
1.32442
1.32319
1.32198
1.32078
1.3196
1.31843
1.31728
1.31614
1.31501
1.3139
1.3128
1.31172
1.31065
1.30959
1.30855
1.30753
1.30651
1.30551
1.30452
1.30355
1.30259
1.30164
1.30071
1.29979
1.29888
1.29798
1.29709
1.29622
1.29536
1.29451
1.29367
1.29285