/*--------------------------------*- C++ -*----------------------------------*\
| =========                 |                                                 |
| \\      /  F ield         | OpenFOAM: The Open Source CFD Toolbox           |
|  \\    /   O peration     | Version:  5.x                                   |
|   \\  /    A nd           | Web:      www.OpenFOAM.org                      |
|    \\/     M anipulation  |                                                 |
\*---------------------------------------------------------------------------*/
FoamFile
{
    version     2.0;
    format      ascii;
    class       volScalarField;
    location    "0";
    object      nut;
}
// * * * * * * * * * * * * * * * * * * * * * * * * * * * * * * * * * * * * * //

dimensions      [0 2 -1 0 0 0 0];

internalField   nonuniform List<scalar> 
103200
(
0.0090434
0.00300104
0.0030075
0.00301414
0.00301989
0.00302479
0.00302902
0.00303272
0.00303601
0.00303895
0.00304161
0.00304404
0.00304628
0.00304833
0.00305024
0.00305202
0.00305368
0.00305524
0.00305671
0.00305809
0.00305939
0.00306063
0.0030618
0.00306291
0.00306397
0.00306499
0.00306595
0.00306688
0.00306777
0.00306862
0.00306944
0.00307022
0.00307098
0.00307171
0.00307242
0.0030731
0.00307376
0.0030744
0.00307502
0.00307562
0.0030762
0.00307677
0.00307732
0.00307785
0.00307837
0.00307888
0.00307937
0.00307985
0.00308032
0.00308078
0.00308123
0.00308166
0.00308209
0.00308251
0.00308291
0.00308331
0.0030837
0.00308408
0.00308445
0.00308482
0.00308518
0.00308553
0.00308587
0.0030862
0.00308653
0.00308686
0.00308717
0.00308748
0.00308778
0.00308808
0.00308837
0.00308866
0.00308894
0.00308921
0.00308948
0.00308975
0.00309
0.00309026
0.00309051
0.00309075
0.00309099
0.00309123
0.00309146
0.00309168
0.0030919
0.00309212
0.00309233
0.00309254
0.00309275
0.00309295
0.00309314
0.00309334
0.00309353
0.00309371
0.00309389
0.00309407
0.00309425
0.00309442
0.00309459
0.00309475
0.00309491
0.00309507
0.00309523
0.00309538
0.00309553
0.00309567
0.00309581
0.00309596
0.00309609
0.00309623
0.00309636
0.00309649
0.00309661
0.00309674
0.00309686
0.00309698
0.00309709
0.0030972
0.00309731
0.00309742
0.00309753
0.00309763
0.00309773
0.00309782
0.00309792
0.00309801
0.0030981
0.00309818
0.00309827
0.00309835
0.00309843
0.0030985
0.00309857
0.00309864
0.00309871
0.00309877
0.00309883
0.00309889
0.00309894
0.00309899
0.00309903
0.00309907
0.0030991
0.00309913
0.00309915
0.00309917
0.00309918
0.00309918
0.00309917
0.00309918
0.0242779
0.0151075
0.0146908
0.0144986
0.0143923
0.014327
0.0142843
0.0142552
0.0142348
0.0142202
0.0142097
0.0142021
0.0141966
0.0141928
0.0141902
0.0141886
0.0141877
0.0141874
0.0141875
0.014188
0.0141888
0.0141898
0.014191
0.0141924
0.0141938
0.0141954
0.014197
0.0141986
0.0142003
0.014202
0.0142038
0.0142055
0.0142072
0.014209
0.0142107
0.0142124
0.0142142
0.0142158
0.0142175
0.0142192
0.0142208
0.0142225
0.0142241
0.0142257
0.0142272
0.0142288
0.0142303
0.0142318
0.0142333
0.0142348
0.0142362
0.0142376
0.014239
0.0142404
0.0142418
0.0142431
0.0142444
0.0142457
0.014247
0.0142483
0.0142495
0.0142507
0.014252
0.0142531
0.0142543
0.0142555
0.0142566
0.0142577
0.0142588
0.0142599
0.014261
0.014262
0.0142631
0.0142641
0.0142651
0.0142661
0.014267
0.014268
0.0142689
0.0142699
0.0142708
0.0142717
0.0142725
0.0142734
0.0142743
0.0142751
0.0142759
0.0142768
0.0142776
0.0142783
0.0142791
0.0142799
0.0142806
0.0142814
0.0142821
0.0142828
0.0142835
0.0142842
0.0142849
0.0142855
0.0142862
0.0142869
0.0142875
0.0142881
0.0142887
0.0142893
0.0142899
0.0142905
0.0142911
0.0142917
0.0142922
0.0142928
0.0142933
0.0142939
0.0142944
0.0142949
0.0142954
0.0142959
0.0142964
0.0142969
0.0142973
0.0142978
0.0142983
0.0142987
0.0142991
0.0142996
0.0143
0.0143004
0.0143008
0.0143012
0.0143016
0.014302
0.0143024
0.0143027
0.0143031
0.0143034
0.0143038
0.0143041
0.0143044
0.0143047
0.014305
0.0143053
0.0143056
0.0143059
0.0143061
0.0143064
0.0143066
0.0143069
0.0143071
0.0143073
0.0414211
0.0308726
0.0298185
0.0291733
0.0287476
0.0284501
0.0282327
0.0280685
0.0279409
0.0278398
0.0277582
0.0276914
0.0276361
0.0275899
0.0275509
0.0275178
0.0274895
0.0274652
0.0274443
0.0274262
0.0274104
0.0273967
0.0273847
0.0273743
0.0273651
0.027357
0.02735
0.0273438
0.0273384
0.0273336
0.0273294
0.0273258
0.0273226
0.0273198
0.0273174
0.0273153
0.0273135
0.027312
0.0273107
0.0273097
0.0273088
0.0273081
0.0273076
0.0273072
0.0273069
0.0273068
0.0273068
0.0273068
0.027307
0.0273072
0.0273075
0.0273079
0.0273083
0.0273088
0.0273094
0.0273099
0.0273106
0.0273112
0.0273119
0.0273126
0.0273134
0.0273142
0.027315
0.0273158
0.0273166
0.0273175
0.0273183
0.0273192
0.0273201
0.0273209
0.0273218
0.0273227
0.0273236
0.0273245
0.0273255
0.0273264
0.0273273
0.0273282
0.0273291
0.02733
0.0273309
0.0273318
0.0273327
0.0273336
0.0273345
0.0273354
0.0273363
0.0273372
0.027338
0.0273389
0.0273398
0.0273406
0.0273415
0.0273423
0.0273432
0.027344
0.0273448
0.0273457
0.0273465
0.0273473
0.0273481
0.0273489
0.0273497
0.0273504
0.0273512
0.027352
0.0273527
0.0273535
0.0273542
0.027355
0.0273557
0.0273564
0.0273572
0.0273579
0.0273586
0.0273593
0.02736
0.0273607
0.0273614
0.027362
0.0273627
0.0273634
0.027364
0.0273647
0.0273653
0.027366
0.0273666
0.0273672
0.0273679
0.0273685
0.0273691
0.0273697
0.0273703
0.0273709
0.0273714
0.027372
0.0273726
0.0273731
0.0273737
0.0273743
0.0273748
0.0273754
0.0273759
0.0273764
0.027377
0.0273775
0.0273781
0.0273786
0.0273792
0.0273797
0.0597012
0.0491145
0.0478679
0.0468652
0.046091
0.0454917
0.0450206
0.0446435
0.0443367
0.0440833
0.0438713
0.0436921
0.043539
0.0434072
0.0432928
0.0431929
0.0431052
0.0430278
0.042959
0.0428978
0.0428431
0.042794
0.0427498
0.0427099
0.0426738
0.042641
0.0426112
0.042584
0.0425592
0.0425364
0.0425156
0.0424964
0.0424788
0.0424626
0.0424477
0.0424338
0.0424211
0.0424093
0.0423983
0.0423881
0.0423787
0.04237
0.0423618
0.0423543
0.0423472
0.0423407
0.0423346
0.0423289
0.0423236
0.0423187
0.0423141
0.0423098
0.0423058
0.0423021
0.0422986
0.0422953
0.0422923
0.0422895
0.0422869
0.0422844
0.0422822
0.04228
0.0422781
0.0422762
0.0422745
0.0422729
0.0422715
0.0422701
0.0422688
0.0422677
0.0422666
0.0422656
0.0422647
0.0422639
0.0422631
0.0422624
0.0422618
0.0422612
0.0422607
0.0422602
0.0422598
0.0422594
0.0422591
0.0422588
0.0422586
0.0422584
0.0422582
0.0422581
0.042258
0.0422579
0.0422579
0.0422579
0.0422579
0.0422579
0.042258
0.0422581
0.0422582
0.0422583
0.0422585
0.0422586
0.0422588
0.042259
0.0422592
0.0422595
0.0422597
0.04226
0.0422603
0.0422605
0.0422608
0.0422612
0.0422615
0.0422619
0.0422622
0.0422626
0.042263
0.0422634
0.0422638
0.0422642
0.0422646
0.0422651
0.0422655
0.042266
0.0422664
0.0422669
0.0422674
0.0422679
0.0422684
0.0422689
0.0422694
0.0422699
0.0422705
0.042271
0.0422715
0.0422721
0.0422726
0.0422732
0.0422737
0.0422743
0.0422749
0.0422754
0.042276
0.0422766
0.0422772
0.0422779
0.0422785
0.0422792
0.0422799
0.0422807
0.0422814
0.0422822
0.079271
0.0689972
0.0681012
0.0670608
0.0660913
0.06525
0.064535
0.0639289
0.0634132
0.0629716
0.0625907
0.0622599
0.0619707
0.0617164
0.0614915
0.0612916
0.0611131
0.060953
0.0608088
0.0606785
0.0605604
0.060453
0.0603551
0.0602655
0.0601834
0.060108
0.0600385
0.0599744
0.0599152
0.0598603
0.0598094
0.059762
0.059718
0.0596769
0.0596385
0.0596027
0.0595691
0.0595377
0.0595082
0.0594805
0.0594544
0.0594299
0.0594068
0.059385
0.0593644
0.059345
0.0593266
0.0593093
0.0592928
0.0592773
0.0592625
0.0592485
0.0592352
0.0592225
0.0592105
0.0591991
0.0591882
0.0591779
0.059168
0.0591587
0.0591497
0.0591412
0.059133
0.0591252
0.0591178
0.0591107
0.0591039
0.0590974
0.0590912
0.0590852
0.0590795
0.0590741
0.0590689
0.0590639
0.0590591
0.0590545
0.0590501
0.0590458
0.0590418
0.0590379
0.0590342
0.0590306
0.0590272
0.0590239
0.0590207
0.0590177
0.0590148
0.059012
0.0590093
0.0590068
0.0590043
0.0590019
0.0589997
0.0589975
0.0589954
0.0589934
0.0589915
0.0589896
0.0589879
0.0589862
0.0589846
0.058983
0.0589815
0.0589801
0.0589787
0.0589775
0.0589762
0.0589751
0.058974
0.0589729
0.0589719
0.058971
0.0589701
0.0589693
0.0589685
0.0589678
0.0589671
0.0589665
0.0589659
0.0589654
0.0589649
0.0589645
0.0589641
0.0589638
0.0589635
0.0589632
0.058963
0.0589628
0.0589626
0.0589625
0.0589624
0.0589623
0.0589623
0.0589623
0.0589623
0.0589624
0.0589625
0.0589626
0.0589628
0.058963
0.0589632
0.0589635
0.0589638
0.0589642
0.0589645
0.058965
0.0589655
0.0589661
0.0589668
0.0589676
0.100444
0.0902914
0.0900986
0.0893734
0.0884605
0.0875373
0.0866735
0.0858907
0.0851904
0.0845664
0.0840107
0.0835149
0.0830714
0.0826733
0.0823149
0.0819911
0.0816976
0.0814308
0.0811876
0.0809652
0.0807614
0.0805741
0.0804016
0.0802424
0.0800952
0.0799587
0.079832
0.0797142
0.0796044
0.0795019
0.0794061
0.0793165
0.0792325
0.0791536
0.0790795
0.0790097
0.078944
0.078882
0.0788235
0.0787682
0.0787159
0.0786664
0.0786194
0.0785748
0.0785325
0.0784923
0.0784541
0.0784177
0.078383
0.07835
0.0783185
0.0782884
0.0782597
0.0782322
0.0782059
0.0781808
0.0781567
0.0781337
0.0781116
0.0780904
0.07807
0.0780505
0.0780318
0.0780137
0.0779964
0.0779797
0.0779637
0.0779483
0.0779334
0.0779191
0.0779052
0.0778919
0.0778791
0.0778667
0.0778547
0.0778432
0.0778321
0.0778213
0.0778109
0.0778009
0.0777911
0.0777817
0.0777727
0.0777639
0.0777554
0.0777472
0.0777392
0.0777315
0.0777241
0.0777169
0.0777099
0.0777031
0.0776966
0.0776903
0.0776841
0.0776782
0.0776724
0.0776668
0.0776614
0.0776561
0.0776511
0.0776461
0.0776414
0.0776368
0.0776323
0.077628
0.0776238
0.0776198
0.0776159
0.0776121
0.0776085
0.077605
0.0776017
0.0775984
0.0775953
0.0775923
0.0775895
0.0775867
0.0775841
0.0775815
0.0775791
0.0775768
0.0775746
0.0775725
0.0775704
0.0775685
0.0775667
0.0775649
0.0775632
0.0775617
0.0775602
0.0775588
0.0775574
0.0775561
0.077555
0.0775538
0.0775528
0.0775518
0.0775509
0.0775501
0.0775494
0.0775487
0.0775481
0.0775476
0.0775471
0.0775468
0.0775465
0.0775464
0.0775465
0.0775469
0.123538
0.113095
0.113715
0.113569
0.112974
0.112177
0.111319
0.110469
0.109659
0.108903
0.108204
0.107561
0.106971
0.106429
0.105932
0.105476
0.105056
0.104669
0.104311
0.103981
0.103675
0.103391
0.103127
0.102881
0.102652
0.102438
0.102238
0.10205
0.101874
0.101709
0.101554
0.101408
0.10127
0.10114
0.101017
0.100901
0.100791
0.100687
0.100588
0.100494
0.100405
0.10032
0.10024
0.100163
0.100089
0.100019
0.0999526
0.0998888
0.0998277
0.0997693
0.0997134
0.0996598
0.0996084
0.0995592
0.0995119
0.0994664
0.0994228
0.0993808
0.0993405
0.0993016
0.0992642
0.0992282
0.0991934
0.0991599
0.0991276
0.0990964
0.0990663
0.0990373
0.0990092
0.098982
0.0989557
0.0989303
0.0989058
0.098882
0.0988589
0.0988366
0.098815
0.0987941
0.0987737
0.0987541
0.098735
0.0987165
0.0986985
0.0986811
0.0986642
0.0986477
0.0986318
0.0986163
0.0986013
0.0985867
0.0985725
0.0985587
0.0985453
0.0985323
0.0985196
0.0985073
0.0984953
0.0984837
0.0984724
0.0984614
0.0984507
0.0984403
0.0984301
0.0984203
0.0984108
0.0984015
0.0983925
0.0983837
0.0983752
0.098367
0.098359
0.0983513
0.0983438
0.0983365
0.0983295
0.0983227
0.0983161
0.0983097
0.0983036
0.0982976
0.0982919
0.0982863
0.098281
0.0982758
0.0982708
0.098266
0.0982613
0.0982568
0.0982525
0.0982484
0.0982444
0.0982405
0.0982368
0.0982333
0.0982299
0.0982266
0.0982235
0.0982205
0.0982176
0.0982149
0.0982122
0.0982098
0.0982074
0.0982052
0.0982031
0.0982012
0.0981994
0.0981978
0.0981965
0.0981957
0.148848
0.137668
0.139018
0.139575
0.139501
0.139038
0.138365
0.137593
0.136788
0.135987
0.135211
0.13447
0.133769
0.13311
0.132491
0.131912
0.13137
0.130863
0.130389
0.129945
0.12953
0.12914
0.128774
0.128431
0.128108
0.127805
0.127519
0.127249
0.126994
0.126754
0.126526
0.126311
0.126107
0.125913
0.125729
0.125555
0.125389
0.125231
0.12508
0.124937
0.1248
0.124669
0.124545
0.124425
0.124311
0.124202
0.124097
0.123997
0.1239
0.123808
0.123719
0.123634
0.123552
0.123473
0.123397
0.123324
0.123254
0.123186
0.12312
0.123057
0.122996
0.122937
0.12288
0.122825
0.122772
0.122721
0.122671
0.122623
0.122576
0.122531
0.122487
0.122444
0.122403
0.122363
0.122324
0.122287
0.12225
0.122215
0.12218
0.122147
0.122114
0.122082
0.122052
0.122022
0.121993
0.121964
0.121937
0.12191
0.121884
0.121859
0.121834
0.12181
0.121786
0.121763
0.121741
0.12172
0.121698
0.121678
0.121658
0.121638
0.121619
0.121601
0.121583
0.121565
0.121548
0.121531
0.121515
0.121499
0.121484
0.121469
0.121454
0.12144
0.121426
0.121413
0.1214
0.121387
0.121375
0.121363
0.121352
0.121341
0.12133
0.121319
0.121309
0.121299
0.12129
0.12128
0.121271
0.121262
0.121254
0.121246
0.121238
0.12123
0.121223
0.121216
0.121209
0.121202
0.121195
0.121189
0.121183
0.121177
0.121172
0.121166
0.121161
0.121156
0.121151
0.121147
0.121142
0.121138
0.121134
0.121131
0.176653
0.164342
0.166224
0.16747
0.168029
0.168061
0.167741
0.167203
0.166539
0.165808
0.16505
0.164289
0.16354
0.162812
0.162111
0.16144
0.1608
0.160191
0.159612
0.159063
0.158543
0.15805
0.157582
0.157139
0.156718
0.156319
0.155941
0.155581
0.15524
0.154915
0.154606
0.154312
0.154032
0.153764
0.15351
0.153266
0.153034
0.152812
0.1526
0.152396
0.152202
0.152015
0.151837
0.151665
0.151501
0.151343
0.151191
0.151045
0.150904
0.150769
0.150639
0.150513
0.150392
0.150276
0.150163
0.150055
0.14995
0.149848
0.14975
0.149656
0.149564
0.149475
0.149389
0.149306
0.149225
0.149147
0.149071
0.148998
0.148927
0.148857
0.14879
0.148725
0.148661
0.1486
0.14854
0.148482
0.148425
0.14837
0.148316
0.148264
0.148213
0.148164
0.148116
0.148069
0.148023
0.147979
0.147935
0.147893
0.147852
0.147812
0.147772
0.147734
0.147697
0.147661
0.147625
0.147591
0.147557
0.147524
0.147492
0.14746
0.14743
0.1474
0.147371
0.147342
0.147314
0.147287
0.147261
0.147235
0.14721
0.147186
0.147162
0.147139
0.147116
0.147094
0.147072
0.147052
0.147031
0.147012
0.146992
0.146974
0.146955
0.146938
0.146921
0.146904
0.146888
0.146872
0.146856
0.146842
0.146827
0.146813
0.146799
0.146786
0.146773
0.146761
0.146748
0.146737
0.146725
0.146714
0.146703
0.146693
0.146682
0.146673
0.146663
0.146654
0.146645
0.146636
0.146628
0.14662
0.146612
0.146606
0.207234
0.193473
0.195652
0.197466
0.198665
0.199283
0.199446
0.199283
0.198895
0.19836
0.197732
0.197048
0.196334
0.19561
0.194888
0.194176
0.19348
0.192804
0.19215
0.19152
0.190914
0.190331
0.189773
0.189238
0.188726
0.188235
0.187766
0.187316
0.186886
0.186475
0.18608
0.185703
0.185341
0.184994
0.184662
0.184343
0.184037
0.183744
0.183462
0.183191
0.18293
0.18268
0.182439
0.182207
0.181983
0.181768
0.18156
0.18136
0.181167
0.180981
0.180801
0.180627
0.180459
0.180297
0.18014
0.179988
0.179841
0.179698
0.17956
0.179426
0.179297
0.179171
0.179049
0.178931
0.178816
0.178704
0.178595
0.17849
0.178388
0.178288
0.178191
0.178097
0.178005
0.177916
0.177829
0.177745
0.177662
0.177582
0.177504
0.177427
0.177353
0.17728
0.17721
0.177141
0.177074
0.177008
0.176944
0.176881
0.17682
0.176761
0.176703
0.176646
0.17659
0.176536
0.176483
0.176432
0.176381
0.176332
0.176284
0.176236
0.17619
0.176145
0.176101
0.176059
0.176017
0.175976
0.175936
0.175897
0.175858
0.175821
0.175785
0.175749
0.175715
0.175681
0.175648
0.175616
0.175585
0.175554
0.175525
0.175496
0.175467
0.17544
0.175413
0.175387
0.175362
0.175337
0.175313
0.175289
0.175266
0.175244
0.175223
0.175201
0.175181
0.175161
0.175141
0.175122
0.175104
0.175086
0.175068
0.175051
0.175035
0.175019
0.175003
0.174988
0.174973
0.174958
0.174944
0.174931
0.174918
0.174906
0.240883
0.225424
0.227685
0.22988
0.231633
0.232844
0.233561
0.233877
0.233885
0.233665
0.233281
0.232781
0.2322
0.231567
0.230901
0.230216
0.229525
0.228834
0.228151
0.227478
0.226819
0.226177
0.225553
0.224947
0.224359
0.223792
0.223243
0.222713
0.222201
0.221708
0.221232
0.220774
0.220331
0.219905
0.219494
0.219097
0.218715
0.218346
0.217991
0.217647
0.217316
0.216996
0.216687
0.216388
0.2161
0.215821
0.215551
0.21529
0.215038
0.214793
0.214557
0.214327
0.214105
0.21389
0.213681
0.213479
0.213282
0.213091
0.212906
0.212726
0.212552
0.212382
0.212217
0.212056
0.2119
0.211748
0.211601
0.211457
0.211317
0.21118
0.211047
0.210918
0.210791
0.210668
0.210548
0.210431
0.210317
0.210206
0.210097
0.209991
0.209887
0.209786
0.209687
0.209591
0.209497
0.209404
0.209315
0.209227
0.209141
0.209057
0.208975
0.208894
0.208816
0.208739
0.208664
0.208591
0.208519
0.208449
0.20838
0.208313
0.208247
0.208182
0.208119
0.208058
0.207998
0.207939
0.207881
0.207825
0.20777
0.207716
0.207664
0.207612
0.207562
0.207513
0.207465
0.207418
0.207373
0.207328
0.207285
0.207242
0.207201
0.20716
0.207121
0.207082
0.207045
0.207008
0.206972
0.206938
0.206904
0.20687
0.206838
0.206806
0.206776
0.206746
0.206716
0.206688
0.20666
0.206633
0.206606
0.20658
0.206555
0.20653
0.206506
0.206483
0.20646
0.206437
0.206416
0.206394
0.206374
0.206355
0.277912
0.260555
0.262736
0.265107
0.267263
0.268999
0.270272
0.271117
0.271601
0.271793
0.271757
0.271545
0.271197
0.270749
0.270227
0.269651
0.269037
0.268399
0.267745
0.267084
0.266422
0.265762
0.265109
0.264466
0.263834
0.263214
0.262609
0.262018
0.261442
0.260882
0.260337
0.259807
0.259293
0.258794
0.25831
0.25784
0.257385
0.256943
0.256515
0.256099
0.255697
0.255306
0.254927
0.25456
0.254203
0.253857
0.253522
0.253196
0.25288
0.252573
0.252274
0.251985
0.251703
0.251429
0.251163
0.250905
0.250653
0.250408
0.25017
0.249938
0.249712
0.249492
0.249278
0.249069
0.248866
0.248667
0.248474
0.248285
0.248101
0.247922
0.247747
0.247576
0.247409
0.247246
0.247086
0.246931
0.246779
0.246631
0.246485
0.246344
0.246205
0.246069
0.245937
0.245807
0.24568
0.245556
0.245435
0.245316
0.2452
0.245086
0.244975
0.244866
0.244759
0.244655
0.244553
0.244452
0.244354
0.244258
0.244164
0.244072
0.243982
0.243894
0.243807
0.243722
0.243639
0.243558
0.243479
0.243401
0.243324
0.24325
0.243177
0.243106
0.243036
0.242967
0.242901
0.242835
0.242771
0.242709
0.242648
0.242588
0.24253
0.242473
0.242417
0.242363
0.24231
0.242258
0.242207
0.242157
0.242109
0.242062
0.242015
0.24197
0.241926
0.241883
0.241841
0.2418
0.24176
0.24172
0.241682
0.241645
0.241608
0.241572
0.241537
0.241503
0.241469
0.241436
0.241404
0.241373
0.241342
0.241313
0.318657
0.299223
0.30123
0.303595
0.305971
0.308102
0.309865
0.31123
0.312222
0.312887
0.313277
0.313439
0.313416
0.313246
0.312957
0.312574
0.31212
0.311609
0.311057
0.310472
0.309866
0.309244
0.308614
0.307979
0.307343
0.30671
0.306082
0.305462
0.304849
0.304247
0.303655
0.303075
0.302507
0.301951
0.301407
0.300876
0.300358
0.299852
0.299359
0.298878
0.298409
0.297953
0.297507
0.297074
0.296651
0.29624
0.295839
0.295448
0.295067
0.294696
0.294335
0.293983
0.293639
0.293304
0.292978
0.29266
0.292349
0.292046
0.291751
0.291463
0.291181
0.290907
0.290639
0.290377
0.290121
0.289871
0.289627
0.289388
0.289155
0.288927
0.288705
0.288487
0.288274
0.288065
0.287861
0.287662
0.287467
0.287276
0.287089
0.286906
0.286727
0.286551
0.286379
0.286211
0.286046
0.285885
0.285726
0.285571
0.285419
0.285271
0.285125
0.284982
0.284842
0.284704
0.28457
0.284438
0.284308
0.284181
0.284057
0.283935
0.283815
0.283698
0.283583
0.28347
0.28336
0.283251
0.283145
0.283041
0.282939
0.282839
0.282742
0.282646
0.282552
0.28246
0.28237
0.282281
0.282195
0.282111
0.282028
0.281947
0.281868
0.28179
0.281714
0.28164
0.281567
0.281496
0.281427
0.281359
0.281292
0.281227
0.281164
0.281101
0.28104
0.280981
0.280923
0.280866
0.28081
0.280755
0.280702
0.280649
0.280598
0.280548
0.280499
0.280451
0.280404
0.280358
0.280312
0.280268
0.280225
0.280183
0.363491
0.3418
0.343596
0.345821
0.348239
0.350601
0.352733
0.35455
0.356028
0.35718
0.358036
0.358631
0.359004
0.359188
0.359214
0.359108
0.358893
0.35859
0.358214
0.357779
0.357297
0.356778
0.35623
0.35566
0.355074
0.354476
0.353871
0.353261
0.352651
0.352042
0.351436
0.350835
0.35024
0.349652
0.349072
0.3485
0.347938
0.347385
0.346843
0.34631
0.345788
0.345276
0.344774
0.344283
0.343802
0.343332
0.342871
0.34242
0.341979
0.341548
0.341126
0.340713
0.34031
0.339915
0.339529
0.339151
0.338781
0.33842
0.338066
0.33772
0.337381
0.33705
0.336725
0.336408
0.336097
0.335792
0.335494
0.335203
0.334917
0.334637
0.334362
0.334094
0.33383
0.333572
0.333319
0.333072
0.332829
0.33259
0.332357
0.332128
0.331903
0.331683
0.331467
0.331255
0.331047
0.330844
0.330644
0.330447
0.330255
0.330066
0.329881
0.329699
0.32952
0.329345
0.329173
0.329004
0.328838
0.328676
0.328516
0.328359
0.328205
0.328054
0.327906
0.32776
0.327617
0.327477
0.32734
0.327205
0.327072
0.326942
0.326815
0.32669
0.326567
0.326447
0.326329
0.326214
0.3261
0.325989
0.32588
0.325774
0.325669
0.325567
0.325467
0.325368
0.325272
0.325178
0.325085
0.324995
0.324906
0.324819
0.324734
0.324651
0.32457
0.32449
0.324411
0.324335
0.32426
0.324186
0.324114
0.324043
0.323974
0.323906
0.32384
0.323774
0.32371
0.323647
0.323586
0.323525
0.323466
0.323408
0.41282
0.388685
0.390272
0.392281
0.394595
0.397017
0.399366
0.401519
0.403408
0.40501
0.406328
0.407378
0.408186
0.408778
0.409182
0.409421
0.409519
0.409497
0.409372
0.40916
0.408874
0.408526
0.408127
0.407685
0.407209
0.406703
0.406175
0.405629
0.405068
0.404497
0.403919
0.403337
0.402751
0.402166
0.401581
0.400999
0.40042
0.399847
0.399278
0.398716
0.398161
0.397612
0.397072
0.396539
0.396014
0.395498
0.394989
0.39449
0.393999
0.393516
0.393042
0.392576
0.392119
0.391669
0.391229
0.390796
0.390371
0.389954
0.389544
0.389143
0.388748
0.388361
0.387982
0.387609
0.387243
0.386884
0.386531
0.386185
0.385845
0.385512
0.385184
0.384863
0.384547
0.384237
0.383933
0.383634
0.38334
0.383052
0.382769
0.382491
0.382217
0.381949
0.381685
0.381426
0.381172
0.380922
0.380676
0.380434
0.380197
0.379964
0.379735
0.37951
0.379288
0.379071
0.378857
0.378647
0.378441
0.378238
0.378038
0.377842
0.377649
0.37746
0.377274
0.377091
0.376911
0.376735
0.376561
0.37639
0.376223
0.376058
0.375897
0.375738
0.375582
0.375429
0.375279
0.375132
0.374987
0.374845
0.374705
0.374569
0.374434
0.374303
0.374174
0.374047
0.373923
0.373801
0.373681
0.373564
0.373449
0.373336
0.373226
0.373117
0.373011
0.372907
0.372804
0.372704
0.372606
0.372509
0.372415
0.372322
0.372231
0.372141
0.372053
0.371967
0.371882
0.371799
0.371717
0.371637
0.371558
0.371481
0.467093
0.440303
0.441702
0.443473
0.445587
0.447923
0.45033
0.452672
0.454856
0.456825
0.458553
0.460036
0.461281
0.462302
0.463119
0.46375
0.464216
0.464536
0.464726
0.464803
0.464781
0.464672
0.464489
0.464242
0.463939
0.463588
0.463196
0.46277
0.462315
0.461835
0.461335
0.460819
0.460289
0.459749
0.4592
0.458646
0.458087
0.457526
0.456965
0.456403
0.455843
0.455285
0.45473
0.454179
0.453633
0.453091
0.452555
0.452024
0.4515
0.450981
0.450469
0.449964
0.449465
0.448973
0.448488
0.44801
0.447539
0.447075
0.446618
0.446167
0.445723
0.445287
0.444856
0.444433
0.444016
0.443605
0.443201
0.442804
0.442412
0.442027
0.441648
0.441275
0.440908
0.440546
0.44019
0.43984
0.439496
0.439157
0.438823
0.438494
0.438171
0.437853
0.43754
0.437232
0.436928
0.43663
0.436336
0.436047
0.435762
0.435482
0.435206
0.434935
0.434668
0.434405
0.434146
0.433891
0.433641
0.433394
0.433151
0.432912
0.432677
0.432446
0.432218
0.431994
0.431773
0.431556
0.431343
0.431133
0.430926
0.430723
0.430523
0.430327
0.430133
0.429943
0.429757
0.429573
0.429393
0.429215
0.429041
0.42887
0.428702
0.428537
0.428374
0.428215
0.428058
0.427905
0.427754
0.427605
0.42746
0.427317
0.427177
0.427039
0.426904
0.426771
0.42664
0.426512
0.426387
0.426263
0.426142
0.426023
0.425906
0.425791
0.425678
0.425567
0.425458
0.42535
0.425244
0.42514
0.425038
0.424938
0.526804
0.497121
0.498364
0.499911
0.50178
0.503927
0.50625
0.508631
0.510969
0.513186
0.515233
0.517083
0.518724
0.520157
0.521388
0.522428
0.523291
0.523992
0.524544
0.524963
0.525261
0.525451
0.525546
0.525554
0.525487
0.525353
0.52516
0.524914
0.524623
0.524291
0.523925
0.523528
0.523106
0.52266
0.522196
0.521715
0.521221
0.520715
0.5202
0.519677
0.519148
0.518616
0.51808
0.517542
0.517004
0.516465
0.515927
0.515391
0.514857
0.514325
0.513797
0.513272
0.512751
0.512235
0.511723
0.511215
0.510713
0.510215
0.509723
0.509236
0.508755
0.508279
0.507808
0.507344
0.506884
0.506431
0.505983
0.505541
0.505104
0.504673
0.504247
0.503827
0.503413
0.503004
0.502601
0.502203
0.50181
0.501423
0.50104
0.500664
0.500292
0.499925
0.499564
0.499207
0.498855
0.498508
0.498166
0.497829
0.497497
0.497169
0.496846
0.496527
0.496213
0.495903
0.495598
0.495297
0.495
0.494708
0.49442
0.494136
0.493856
0.49358
0.493308
0.49304
0.492776
0.492516
0.492259
0.492007
0.491758
0.491513
0.491272
0.491034
0.4908
0.49057
0.490343
0.49012
0.4899
0.489684
0.489471
0.489262
0.489056
0.488854
0.488655
0.488459
0.488266
0.488076
0.48789
0.487707
0.487527
0.48735
0.487176
0.487005
0.486837
0.486671
0.486509
0.486349
0.486192
0.486037
0.485886
0.485736
0.485589
0.485445
0.485303
0.485163
0.485025
0.48489
0.484756
0.484624
0.484495
0.484368
0.592493
0.559653
0.560767
0.562125
0.563749
0.565653
0.56779
0.570077
0.572424
0.574752
0.576996
0.579112
0.581072
0.582859
0.584468
0.585899
0.587156
0.588248
0.589184
0.589975
0.590632
0.591165
0.591585
0.591902
0.592126
0.592264
0.592326
0.592319
0.592249
0.592124
0.591948
0.591727
0.591467
0.59117
0.590842
0.590486
0.590104
0.589701
0.589279
0.58884
0.588387
0.58792
0.587444
0.586957
0.586464
0.585964
0.585458
0.584949
0.584436
0.583922
0.583405
0.582888
0.582371
0.581855
0.581339
0.580825
0.580313
0.579802
0.579295
0.57879
0.578288
0.57779
0.577295
0.576804
0.576317
0.575834
0.575354
0.57488
0.574409
0.573943
0.573481
0.573024
0.572571
0.572123
0.57168
0.571241
0.570808
0.570378
0.569954
0.569534
0.569119
0.568708
0.568303
0.567902
0.567505
0.567114
0.566727
0.566344
0.565966
0.565593
0.565224
0.56486
0.5645
0.564145
0.563794
0.563447
0.563105
0.562767
0.562433
0.562104
0.561779
0.561458
0.561141
0.560829
0.56052
0.560216
0.559915
0.559619
0.559326
0.559038
0.558754
0.558473
0.558196
0.557923
0.557655
0.557389
0.557128
0.556871
0.556617
0.556367
0.55612
0.555878
0.555639
0.555403
0.555171
0.554943
0.554718
0.554497
0.554279
0.554065
0.553853
0.553646
0.553441
0.55324
0.553041
0.552846
0.552654
0.552465
0.552279
0.552096
0.551916
0.551738
0.551563
0.551391
0.551221
0.551054
0.550888
0.550726
0.550565
0.550407
0.664759
0.628466
0.629473
0.630678
0.63209
0.633742
0.635635
0.637731
0.639965
0.642267
0.644575
0.646833
0.649002
0.651054
0.652968
0.654735
0.656349
0.65781
0.659121
0.660287
0.661315
0.662213
0.662988
0.663648
0.664202
0.664657
0.665021
0.665302
0.665505
0.665638
0.665706
0.665715
0.66567
0.665576
0.665438
0.665259
0.665043
0.664794
0.664514
0.664208
0.663877
0.663524
0.663151
0.662761
0.662355
0.661935
0.661502
0.661058
0.660605
0.660143
0.659674
0.659199
0.658718
0.658233
0.657744
0.657252
0.656758
0.656262
0.655765
0.655267
0.654769
0.654271
0.653774
0.653277
0.652782
0.652289
0.651797
0.651307
0.65082
0.650335
0.649852
0.649373
0.648896
0.648422
0.647952
0.647485
0.647022
0.646562
0.646105
0.645653
0.645204
0.644758
0.644317
0.64388
0.643446
0.643017
0.642592
0.64217
0.641753
0.64134
0.640931
0.640526
0.640125
0.639728
0.639335
0.638947
0.638563
0.638182
0.637806
0.637434
0.637066
0.636703
0.636343
0.635987
0.635636
0.635288
0.634945
0.634605
0.63427
0.633939
0.633611
0.633288
0.632968
0.632653
0.632341
0.632034
0.63173
0.63143
0.631134
0.630843
0.630554
0.63027
0.62999
0.629713
0.629441
0.629172
0.628906
0.628645
0.628387
0.628133
0.627882
0.627635
0.627392
0.627152
0.626916
0.626683
0.626453
0.626227
0.626004
0.625784
0.625567
0.625353
0.625142
0.624935
0.624729
0.624527
0.624327
0.62413
0.623935
0.623743
0.744257
0.70418
0.705095
0.706183
0.707422
0.708848
0.710488
0.712339
0.714371
0.716536
0.71878
0.721051
0.723305
0.725506
0.727625
0.729641
0.731541
0.733315
0.73496
0.736473
0.737856
0.739112
0.740245
0.741261
0.742164
0.742961
0.743658
0.744261
0.744776
0.745209
0.745565
0.74585
0.746069
0.746226
0.746327
0.746375
0.746375
0.74633
0.746244
0.74612
0.745961
0.74577
0.74555
0.745302
0.74503
0.744735
0.74442
0.744085
0.743734
0.743366
0.742985
0.742591
0.742185
0.741768
0.741342
0.740908
0.740466
0.740017
0.739562
0.739102
0.738638
0.738169
0.737698
0.737223
0.736747
0.736268
0.735788
0.735307
0.734825
0.734343
0.733861
0.73338
0.732899
0.732419
0.73194
0.731462
0.730986
0.730511
0.730039
0.729568
0.7291
0.728634
0.728171
0.72771
0.727251
0.726796
0.726344
0.725894
0.725448
0.725005
0.724565
0.724128
0.723695
0.723265
0.722838
0.722415
0.721996
0.72158
0.721168
0.720759
0.720355
0.719953
0.719556
0.719162
0.718772
0.718386
0.718003
0.717624
0.717249
0.716878
0.716511
0.716147
0.715788
0.715432
0.71508
0.714732
0.714387
0.714047
0.71371
0.713377
0.713048
0.712723
0.712402
0.712085
0.711772
0.711462
0.711156
0.710854
0.710556
0.710262
0.709971
0.709684
0.709401
0.709121
0.708846
0.708573
0.708305
0.708039
0.707778
0.707519
0.707264
0.707013
0.706764
0.706519
0.706276
0.706037
0.7058
0.705566
0.705334
0.705106
0.831709
0.787486
0.788317
0.789312
0.79042
0.791662
0.793072
0.794671
0.796456
0.798406
0.800486
0.802654
0.804871
0.807098
0.809304
0.811462
0.81355
0.815552
0.817457
0.819258
0.820948
0.822527
0.823993
0.825347
0.826593
0.827734
0.828772
0.829712
0.830559
0.831317
0.83199
0.832584
0.833102
0.83355
0.833931
0.834249
0.834509
0.834713
0.834866
0.834971
0.835031
0.83505
0.835029
0.834972
0.83488
0.834758
0.834606
0.834426
0.834221
0.833993
0.833743
0.833473
0.833183
0.832877
0.832554
0.832217
0.831866
0.831503
0.831127
0.830742
0.830346
0.829942
0.829529
0.82911
0.828683
0.82825
0.827812
0.827369
0.826922
0.826471
0.826016
0.825559
0.825099
0.824637
0.824173
0.823708
0.823241
0.822774
0.822306
0.821839
0.821371
0.820903
0.820436
0.819969
0.819504
0.819039
0.818576
0.818114
0.817654
0.817196
0.816739
0.816284
0.815832
0.815381
0.814933
0.814488
0.814044
0.813604
0.813166
0.812731
0.812299
0.81187
0.811443
0.81102
0.8106
0.810183
0.809769
0.809358
0.80895
0.808546
0.808145
0.807747
0.807353
0.806962
0.806575
0.806191
0.805811
0.805434
0.805061
0.804691
0.804325
0.803963
0.803604
0.803249
0.802897
0.80255
0.802206
0.801865
0.801529
0.801196
0.800867
0.800541
0.800219
0.799901
0.799587
0.799276
0.798969
0.798665
0.798365
0.798068
0.797775
0.797485
0.797198
0.796915
0.796634
0.796357
0.796083
0.795811
0.795542
0.795276
0.927913