/*--------------------------------*- C++ -*----------------------------------*\
| =========                 |                                                 |
| \\      /  F ield         | OpenFOAM: The Open Source CFD Toolbox           |
|  \\    /   O peration     | Version:  5.x                                   |
|   \\  /    A nd           | Web:      www.OpenFOAM.org                      |
|    \\/     M anipulation  |                                                 |
\*---------------------------------------------------------------------------*/
FoamFile
{
    version     2.0;
    format      ascii;
    class       volVectorField;
    location    "0";
    object      U;
}
// * * * * * * * * * * * * * * * * * * * * * * * * * * * * * * * * * * * * * //

dimensions      [0 1 -1 0 0 0 0];

internalField   nonuniform List<vector> 
103200
(
(2.50477 0 0.00312813)
(1.13282 0 0.000103692)
(1.1372 0 3.25626e-05)
(1.14039 0 1.56556e-05)
(1.1429 0 8.7108e-06)
(1.14494 0 5.28481e-06)
(1.14666 0 3.38321e-06)
(1.14814 0 2.23655e-06)
(1.14944 0 1.50092e-06)
(1.15059 0 1.00789e-06)
(1.15163 0 6.65749e-07)
(1.15258 0 4.21839e-07)
(1.15344 0 2.44044e-07)
(1.15423 0 1.12702e-07)
(1.15497 0 1.43447e-08)
(1.15565 0 -6.07788e-08)
(1.15629 0 -1.20319e-07)
(1.15688 0 -1.65521e-07)
(1.15744 0 -1.99996e-07)
(1.15797 0 -2.25938e-07)
(1.15847 0 -2.45612e-07)
(1.15894 0 -2.60008e-07)
(1.15938 0 -2.70526e-07)
(1.15981 0 -2.77689e-07)
(1.16021 0 -2.82655e-07)
(1.1606 0 -2.85464e-07)
(1.16096 0 -2.86774e-07)
(1.16131 0 -2.86601e-07)
(1.16165 0 -2.85805e-07)
(1.16197 0 -2.84046e-07)
(1.16228 0 -2.81759e-07)
(1.16258 0 -2.78763e-07)
(1.16287 0 -2.75753e-07)
(1.16314 0 -2.72265e-07)
(1.16341 0 -2.6867e-07)
(1.16367 0 -2.6468e-07)
(1.16392 0 -2.60968e-07)
(1.16416 0 -2.56976e-07)
(1.1644 0 -2.53041e-07)
(1.16462 0 -2.48858e-07)
(1.16484 0 -2.45072e-07)
(1.16506 0 -2.41091e-07)
(1.16526 0 -2.37219e-07)
(1.16547 0 -2.33137e-07)
(1.16566 0 -2.29509e-07)
(1.16586 0 -2.25714e-07)
(1.16604 0 -2.22077e-07)
(1.16622 0 -2.18224e-07)
(1.1664 0 -2.14809e-07)
(1.16657 0 -2.11283e-07)
(1.16674 0 -2.07865e-07)
(1.16691 0 -2.04255e-07)
(1.16707 0 -2.01103e-07)
(1.16723 0 -1.97771e-07)
(1.16738 0 -1.94584e-07)
(1.16753 0 -1.91208e-07)
(1.16768 0 -1.88261e-07)
(1.16782 0 -1.85167e-07)
(1.16796 0 -1.82202e-07)
(1.1681 0 -1.79019e-07)
(1.16824 0 -1.76288e-07)
(1.16837 0 -1.7335e-07)
(1.1685 0 -1.70599e-07)
(1.16863 0 -1.67591e-07)
(1.16875 0 -1.65018e-07)
(1.16887 0 -1.62281e-07)
(1.16899 0 -1.59694e-07)
(1.16911 0 -1.56849e-07)
(1.16922 0 -1.54437e-07)
(1.16934 0 -1.51847e-07)
(1.16945 0 -1.49433e-07)
(1.16955 0 -1.46733e-07)
(1.16966 0 -1.44472e-07)
(1.16976 0 -1.42044e-07)
(1.16986 0 -1.39728e-07)
(1.16996 0 -1.372e-07)
(1.17006 0 -1.35093e-07)
(1.17016 0 -1.32805e-07)
(1.17025 0 -1.3062e-07)
(1.17034 0 -1.28223e-07)
(1.17044 0 -1.26254e-07)
(1.17052 0 -1.2406e-07)
(1.17061 0 -1.22038e-07)
(1.1707 0 -1.19805e-07)
(1.17078 0 -1.17899e-07)
(1.17086 0 -1.15866e-07)
(1.17094 0 -1.13953e-07)
(1.17102 0 -1.11828e-07)
(1.1711 0 -1.10078e-07)
(1.17117 0 -1.08137e-07)
(1.17125 0 -1.0635e-07)
(1.17132 0 -1.04346e-07)
(1.17139 0 -1.02705e-07)
(1.17146 0 -1.00866e-07)
(1.17153 0 -9.91799e-08)
(1.1716 0 -9.72913e-08)
(1.17166 0 -9.57515e-08)
(1.17173 0 -9.40009e-08)
(1.17179 0 -9.24176e-08)
(1.17185 0 -9.06241e-08)
(1.17191 0 -8.91385e-08)
(1.17197 0 -8.7466e-08)
(1.17203 0 -8.59334e-08)
(1.17209 0 -8.42585e-08)
(1.17215 0 -8.27856e-08)
(1.1722 0 -8.1227e-08)
(1.17225 0 -7.96943e-08)
(1.17231 0 -7.81154e-08)
(1.17236 0 -7.66699e-08)
(1.17241 0 -7.51654e-08)
(1.17246 0 -7.36488e-08)
(1.17251 0 -7.22182e-08)
(1.17255 0 -7.0704e-08)
(1.1726 0 -6.92968e-08)
(1.17265 0 -6.77874e-08)
(1.17269 0 -6.64492e-08)
(1.17273 0 -6.48718e-08)
(1.17278 0 -6.35615e-08)
(1.17282 0 -6.2001e-08)
(1.17286 0 -6.08065e-08)
(1.1729 0 -5.90941e-08)
(1.17293 0 -5.78754e-08)
(1.17297 0 -5.62639e-08)
(1.17301 0 -5.51354e-08)
(1.17304 0 -5.3279e-08)
(1.17308 0 -5.21621e-08)
(1.17311 0 -5.0405e-08)
(1.17314 0 -4.93523e-08)
(1.17317 0 -4.73071e-08)
(1.1732 0 -4.62127e-08)
(1.17323 0 -4.43025e-08)
(1.17326 0 -4.32721e-08)
(1.17329 0 -4.09372e-08)
(1.17331 0 -3.9816e-08)
(1.17334 0 -3.76047e-08)
(1.17336 0 -3.6468e-08)
(1.17338 0 -3.36384e-08)
(1.1734 0 -3.22976e-08)
(1.17342 0 -2.95079e-08)
(1.17344 0 -2.79935e-08)
(1.17345 0 -2.42342e-08)
(1.17346 0 -2.21263e-08)
(1.17348 0 -1.78436e-08)
(1.17349 0 -1.42533e-08)
(1.17349 0 -5.8795e-09)
(1.1735 0 6.61356e-09)
(1.1735 0 4.20274e-08)
(1.1735 0 1.22518e-07)
(1.17349 0 3.20157e-07)
(1.17349 0 7.50905e-07)
(3.70664 0 -0.00247671)
(3.32666 0 -0.000999452)
(3.36904 0 -0.000462349)
(3.39312 0 -0.000294461)
(3.40921 0 -0.000211799)
(3.42098 0 -0.000163622)
(3.43011 0 -0.000132515)
(3.4375 0 -0.000110908)
(3.44367 0 -9.51051e-05)
(3.44893 0 -8.30605e-05)
(3.4535 0 -7.35849e-05)
(3.45752 0 -6.59366e-05)
(3.46111 0 -5.9632e-05)
(3.46434 0 -5.43429e-05)
(3.46727 0 -4.98415e-05)
(3.46995 0 -4.5963e-05)
(3.4724 0 -4.25885e-05)
(3.47467 0 -3.96262e-05)
(3.47677 0 -3.70068e-05)
(3.47873 0 -3.46748e-05)
(3.48056 0 -3.25879e-05)
(3.48227 0 -3.07104e-05)
(3.48388 0 -2.90144e-05)
(3.48539 0 -2.74755e-05)
(3.48682 0 -2.60754e-05)
(3.48818 0 -2.47964e-05)
(3.48947 0 -2.36248e-05)
(3.49069 0 -2.25479e-05)
(3.49186 0 -2.1557e-05)
(3.49297 0 -2.06416e-05)
(3.49403 0 -1.97945e-05)
(3.49505 0 -1.90081e-05)
(3.49603 0 -1.82781e-05)
(3.49696 0 -1.75975e-05)
(3.49786 0 -1.69626e-05)
(3.49873 0 -1.63681e-05)
(3.49957 0 -1.58122e-05)
(3.50038 0 -1.52899e-05)
(3.50116 0 -1.47991e-05)
(3.50191 0 -1.43361e-05)
(3.50264 0 -1.39004e-05)
(3.50334 0 -1.34881e-05)
(3.50403 0 -1.30982e-05)
(3.50469 0 -1.27278e-05)
(3.50534 0 -1.23772e-05)
(3.50597 0 -1.20433e-05)
(3.50658 0 -1.17255e-05)
(3.50717 0 -1.14217e-05)
(3.50775 0 -1.11326e-05)
(3.50831 0 -1.08556e-05)
(3.50886 0 -1.05905e-05)
(3.50939 0 -1.03355e-05)
(3.50991 0 -1.00917e-05)
(3.51042 0 -9.85673e-06)
(3.51092 0 -9.63075e-06)
(3.5114 0 -9.4122e-06)
(3.51187 0 -9.20244e-06)
(3.51234 0 -8.99918e-06)
(3.51279 0 -8.80285e-06)
(3.51323 0 -8.61204e-06)
(3.51366 0 -8.42834e-06)
(3.51409 0 -8.24951e-06)
(3.5145 0 -8.07615e-06)
(3.5149 0 -7.90699e-06)
(3.5153 0 -7.74368e-06)
(3.51569 0 -7.58415e-06)
(3.51607 0 -7.4291e-06)
(3.51644 0 -7.27725e-06)
(3.5168 0 -7.13035e-06)
(3.51716 0 -6.98642e-06)
(3.51751 0 -6.84623e-06)
(3.51785 0 -6.7086e-06)
(3.51818 0 -6.57522e-06)
(3.51851 0 -6.44426e-06)
(3.51883 0 -6.3165e-06)
(3.51915 0 -6.19078e-06)
(3.51946 0 -6.06886e-06)
(3.51976 0 -5.9489e-06)
(3.52006 0 -5.83167e-06)
(3.52035 0 -5.71612e-06)
(3.52063 0 -5.60399e-06)
(3.52091 0 -5.49344e-06)
(3.52118 0 -5.38536e-06)
(3.52145 0 -5.27867e-06)
(3.52171 0 -5.17496e-06)
(3.52197 0 -5.07259e-06)
(3.52222 0 -4.97239e-06)
(3.52247 0 -4.87342e-06)
(3.52271 0 -4.77712e-06)
(3.52295 0 -4.68204e-06)
(3.52318 0 -4.58891e-06)
(3.52341 0 -4.49684e-06)
(3.52363 0 -4.40733e-06)
(3.52385 0 -4.3189e-06)
(3.52407 0 -4.23239e-06)
(3.52428 0 -4.14685e-06)
(3.52448 0 -4.06378e-06)
(3.52468 0 -3.98161e-06)
(3.52488 0 -3.90136e-06)
(3.52507 0 -3.8219e-06)
(3.52526 0 -3.7447e-06)
(3.52545 0 -3.66827e-06)
(3.52563 0 -3.59339e-06)
(3.52581 0 -3.5193e-06)
(3.52598 0 -3.44695e-06)
(3.52615 0 -3.37527e-06)
(3.52632 0 -3.30472e-06)
(3.52648 0 -3.23486e-06)
(3.52664 0 -3.16614e-06)
(3.5268 0 -3.09808e-06)
(3.52695 0 -3.03059e-06)
(3.5271 0 -2.96386e-06)
(3.52724 0 -2.89748e-06)
(3.52739 0 -2.83181e-06)
(3.52753 0 -2.76628e-06)
(3.52766 0 -2.70154e-06)
(3.5278 0 -2.63637e-06)
(3.52792 0 -2.57216e-06)
(3.52805 0 -2.50742e-06)
(3.52817 0 -2.44371e-06)
(3.52829 0 -2.37868e-06)
(3.52841 0 -2.31483e-06)
(3.52852 0 -2.24983e-06)
(3.52863 0 -2.18596e-06)
(3.52874 0 -2.11986e-06)
(3.52885 0 -2.05524e-06)
(3.52895 0 -1.98852e-06)
(3.52904 0 -1.92298e-06)
(3.52914 0 -1.85392e-06)
(3.52923 0 -1.78637e-06)
(3.52931 0 -1.71546e-06)
(3.5294 0 -1.64541e-06)
(3.52948 0 -1.56985e-06)
(3.52955 0 -1.49521e-06)
(3.52962 0 -1.41497e-06)
(3.52969 0 -1.33407e-06)
(3.52976 0 -1.2443e-06)
(3.52981 0 -1.15325e-06)
(3.52987 0 -1.05216e-06)
(3.52992 0 -9.46759e-07)
(3.52996 0 -8.26319e-07)
(3.53 0 -6.99795e-07)
(3.53003 0 -5.56254e-07)
(3.53005 0 -4.0286e-07)
(3.53007 0 -2.23117e-07)
(3.53007 0 -1.19982e-08)
(3.53007 0 2.02728e-07)
(3.53006 0 5.02223e-07)
(3.53004 0 8.73455e-07)
(3.53004 0 1.07293e-06)
(4.39311 0 -0.00759999)
(4.19796 0 -0.00330385)
(4.26316 0 -0.00167338)
(4.30361 0 -0.00106281)
(4.33144 0 -0.000752795)
(4.35197 0 -0.000571016)
(4.36787 0 -0.000454075)
(4.38067 0 -0.000373581)
(4.39125 0 -0.000315343)
(4.4002 0 -0.0002715)
(4.40791 0 -0.000237439)
(4.41463 0 -0.000210289)
(4.42057 0 -0.000188179)
(4.42586 0 -0.000169849)
(4.43062 0 -0.000154423)
(4.43494 0 -0.000141273)
(4.43887 0 -0.000129944)
(4.44247 0 -0.000120091)
(4.44578 0 -0.000111455)
(4.44885 0 -0.00010383)
(4.4517 0 -9.70575e-05)
(4.45435 0 -9.10089e-05)
(4.45682 0 -8.55818e-05)
(4.45915 0 -8.06891e-05)
(4.46133 0 -7.62631e-05)
(4.46339 0 -7.2243e-05)
(4.46533 0 -6.85799e-05)
(4.46717 0 -6.52311e-05)
(4.46891 0 -6.21625e-05)
(4.47057 0 -5.93412e-05)
(4.47215 0 -5.67415e-05)
(4.47365 0 -5.4339e-05)
(4.47509 0 -5.21158e-05)
(4.47647 0 -5.00517e-05)
(4.47779 0 -4.81325e-05)
(4.47905 0 -4.63429e-05)
(4.48027 0 -4.46733e-05)
(4.48144 0 -4.31103e-05)
(4.48257 0 -4.16457e-05)
(4.48366 0 -4.02693e-05)
(4.48471 0 -3.89762e-05)
(4.48572 0 -3.77566e-05)
(4.4867 0 -3.66058e-05)
(4.48765 0 -3.55167e-05)
(4.48857 0 -3.44869e-05)
(4.48946 0 -3.35091e-05)
(4.49032 0 -3.25806e-05)
(4.49116 0 -3.16961e-05)
(4.49198 0 -3.08549e-05)
(4.49277 0 -3.00512e-05)
(4.49354 0 -2.92836e-05)
(4.4943 0 -2.85479e-05)
(4.49503 0 -2.78446e-05)
(4.49574 0 -2.71687e-05)
(4.49643 0 -2.65199e-05)
(4.49711 0 -2.58946e-05)
(4.49777 0 -2.52941e-05)
(4.49841 0 -2.47141e-05)
(4.49904 0 -2.41547e-05)
(4.49966 0 -2.3613e-05)
(4.50026 0 -2.30909e-05)
(4.50084 0 -2.25842e-05)
(4.50142 0 -2.20937e-05)
(4.50198 0 -2.16169e-05)
(4.50252 0 -2.11557e-05)
(4.50306 0 -2.07067e-05)
(4.50358 0 -2.02706e-05)
(4.50409 0 -1.98452e-05)
(4.50459 0 -1.94327e-05)
(4.50508 0 -1.90299e-05)
(4.50556 0 -1.86377e-05)
(4.50603 0 -1.82542e-05)
(4.50649 0 -1.78816e-05)
(4.50694 0 -1.75168e-05)
(4.50738 0 -1.71611e-05)
(4.50781 0 -1.68124e-05)
(4.50823 0 -1.64731e-05)
(4.50865 0 -1.61404e-05)
(4.50905 0 -1.58153e-05)
(4.50945 0 -1.54962e-05)
(4.50984 0 -1.51852e-05)
(4.51022 0 -1.48798e-05)
(4.51059 0 -1.4581e-05)
(4.51095 0 -1.42873e-05)
(4.51131 0 -1.40006e-05)
(4.51166 0 -1.37187e-05)
(4.512 0 -1.34426e-05)
(4.51234 0 -1.31708e-05)
(4.51267 0 -1.29054e-05)
(4.51299 0 -1.26442e-05)
(4.5133 0 -1.23882e-05)
(4.51361 0 -1.21362e-05)
(4.51391 0 -1.18902e-05)
(4.51421 0 -1.16479e-05)
(4.5145 0 -1.14108e-05)
(4.51478 0 -1.11772e-05)
(4.51506 0 -1.09494e-05)
(4.51533 0 -1.0725e-05)
(4.5156 0 -1.05053e-05)
(4.51586 0 -1.02889e-05)
(4.51611 0 -1.00776e-05)
(4.51636 0 -9.8692e-06)
(4.51661 0 -9.66479e-06)
(4.51685 0 -9.4631e-06)
(4.51708 0 -9.26548e-06)
(4.51731 0 -9.07018e-06)
(4.51754 0 -8.87784e-06)
(4.51776 0 -8.68773e-06)
(4.51797 0 -8.50035e-06)
(4.51818 0 -8.31492e-06)
(4.51839 0 -8.13126e-06)
(4.51859 0 -7.94949e-06)
(4.51878 0 -7.76897e-06)
(4.51897 0 -7.59015e-06)
(4.51916 0 -7.41208e-06)
(4.51934 0 -7.23565e-06)
(4.51952 0 -7.05899e-06)
(4.5197 0 -6.88411e-06)
(4.51987 0 -6.70867e-06)
(4.52003 0 -6.53487e-06)
(4.52019 0 -6.35921e-06)
(4.52035 0 -6.18538e-06)
(4.5205 0 -6.00973e-06)
(4.52064 0 -5.83553e-06)
(4.52079 0 -5.65775e-06)
(4.52093 0 -5.48172e-06)
(4.52106 0 -5.30204e-06)
(4.52119 0 -5.12329e-06)
(4.52131 0 -4.93839e-06)
(4.52143 0 -4.75457e-06)
(4.52155 0 -4.56429e-06)
(4.52166 0 -4.37328e-06)
(4.52176 0 -4.17193e-06)
(4.52186 0 -3.96909e-06)
(4.52196 0 -3.75444e-06)
(4.52205 0 -3.53447e-06)
(4.52213 0 -3.29617e-06)
(4.52221 0 -3.0495e-06)
(4.52228 0 -2.78018e-06)
(4.52235 0 -2.49482e-06)
(4.52241 0 -2.17605e-06)
(4.52246 0 -1.83519e-06)
(4.5225 0 -1.45492e-06)
(4.52253 0 -1.04564e-06)
(4.52255 0 -5.80998e-07)
(4.52256 0 -4.03347e-08)
(4.52255 0 4.1339e-07)
(4.52254 0 9.23644e-07)
(4.52251 0 1.19565e-06)
(4.5225 0 -4.64343e-08)
(4.90404 0 -0.0107007)
(4.75532 0 -0.00611841)
(4.82607 0 -0.00343952)
(4.87508 0 -0.00226195)
(4.91073 0 -0.00162548)
(4.93788 0 -0.0012393)
(4.95934 0 -0.000985755)
(4.97681 0 -0.00080913)
(4.99136 0 -0.000680444)
(5.00371 0 -0.000583228)
(5.01436 0 -0.000507616)
(5.02365 0 -0.000447369)
(5.03186 0 -0.000398384)
(5.03917 0 -0.000357868)
(5.04574 0 -0.000323868)
(5.05167 0 -0.00029498)
(5.05706 0 -0.000270173)
(5.06199 0 -0.000248675)
(5.06652 0 -0.000229895)
(5.0707 0 -0.000213371)
(5.07456 0 -0.000198745)
(5.07815 0 -0.000185725)
(5.0815 0 -0.000174081)
(5.08463 0 -0.000163616)
(5.08756 0 -0.000154178)
(5.09031 0 -0.000145631)
(5.09291 0 -0.000137865)
(5.09536 0 -0.000130786)
(5.09768 0 -0.000124315)
(5.09988 0 -0.000118382)
(5.10196 0 -0.000112929)
(5.10395 0 -0.000107903)
(5.10584 0 -0.000103262)
(5.10765 0 -9.89641e-05)
(5.10937 0 -9.49766e-05)
(5.11103 0 -9.12678e-05)
(5.11261 0 -8.7814e-05)
(5.11414 0 -8.45886e-05)
(5.1156 0 -8.15723e-05)
(5.11701 0 -7.87445e-05)
(5.11836 0 -7.60916e-05)
(5.11967 0 -7.35957e-05)
(5.12093 0 -7.12449e-05)
(5.12215 0 -6.90254e-05)
(5.12333 0 -6.69294e-05)
(5.12447 0 -6.49441e-05)
(5.12557 0 -6.30621e-05)
(5.12664 0 -6.12736e-05)
(5.12768 0 -5.95744e-05)
(5.12869 0 -5.79549e-05)
(5.12967 0 -5.64106e-05)
(5.13062 0 -5.49343e-05)
(5.13154 0 -5.3524e-05)
(5.13244 0 -5.21722e-05)
(5.13332 0 -5.08763e-05)
(5.13417 0 -4.96308e-05)
(5.135 0 -4.84352e-05)
(5.13581 0 -4.72833e-05)
(5.1366 0 -4.61739e-05)
(5.13737 0 -4.51025e-05)
(5.13812 0 -4.40699e-05)
(5.13885 0 -4.30705e-05)
(5.13956 0 -4.21042e-05)
(5.14026 0 -4.11672e-05)
(5.14094 0 -4.02609e-05)
(5.14161 0 -3.93806e-05)
(5.14226 0 -3.85266e-05)
(5.1429 0 -3.76957e-05)
(5.14352 0 -3.68898e-05)
(5.14412 0 -3.61046e-05)
(5.14472 0 -3.53408e-05)
(5.1453 0 -3.45958e-05)
(5.14587 0 -3.38714e-05)
(5.14642 0 -3.3164e-05)
(5.14697 0 -3.24744e-05)
(5.1475 0 -3.18002e-05)
(5.14802 0 -3.11436e-05)
(5.14853 0 -3.05011e-05)
(5.14903 0 -2.98737e-05)
(5.14951 0 -2.92591e-05)
(5.14999 0 -2.86598e-05)
(5.15046 0 -2.80722e-05)
(5.15092 0 -2.74976e-05)
(5.15136 0 -2.6934e-05)
(5.1518 0 -2.63834e-05)
(5.15223 0 -2.5843e-05)
(5.15265 0 -2.53138e-05)
(5.15306 0 -2.4794e-05)
(5.15346 0 -2.42859e-05)
(5.15386 0 -2.37867e-05)
(5.15424 0 -2.32978e-05)
(5.15462 0 -2.28173e-05)
(5.15499 0 -2.23477e-05)
(5.15535 0 -2.18863e-05)
(5.15571 0 -2.14344e-05)
(5.15605 0 -2.09905e-05)
(5.15639 0 -2.05567e-05)
(5.15672 0 -2.01303e-05)
(5.15705 0 -1.97127e-05)
(5.15737 0 -1.93021e-05)
(5.15768 0 -1.89005e-05)
(5.15798 0 -1.85051e-05)
(5.15828 0 -1.81171e-05)
(5.15857 0 -1.77348e-05)
(5.15886 0 -1.73596e-05)
(5.15914 0 -1.69894e-05)
(5.15941 0 -1.66248e-05)
(5.15968 0 -1.62646e-05)
(5.15994 0 -1.59094e-05)
(5.1602 0 -1.55581e-05)
(5.16044 0 -1.52104e-05)
(5.16069 0 -1.48662e-05)
(5.16093 0 -1.45247e-05)
(5.16116 0 -1.41863e-05)
(5.16139 0 -1.38498e-05)
(5.16161 0 -1.3516e-05)
(5.16182 0 -1.31828e-05)
(5.16203 0 -1.28522e-05)
(5.16224 0 -1.25216e-05)
(5.16244 0 -1.21932e-05)
(5.16263 0 -1.18631e-05)
(5.16282 0 -1.15352e-05)
(5.16301 0 -1.12052e-05)
(5.16318 0 -1.08767e-05)
(5.16336 0 -1.05438e-05)
(5.16352 0 -1.02125e-05)
(5.16368 0 -9.87618e-06)
(5.16384 0 -9.53991e-06)
(5.16399 0 -9.1953e-06)
(5.16414 0 -8.85023e-06)
(5.16428 0 -8.49566e-06)
(5.16441 0 -8.13745e-06)
(5.16454 0 -7.76411e-06)
(5.16466 0 -7.38481e-06)
(5.16478 0 -6.98686e-06)
(5.16489 0 -6.57627e-06)
(5.16499 0 -6.13692e-06)
(5.16509 0 -5.67818e-06)
(5.16517 0 -5.1818e-06)
(5.16525 0 -4.65255e-06)
(5.16532 0 -4.06803e-06)
(5.16539 0 -3.43807e-06)
(5.16544 0 -2.74081e-06)
(5.16548 0 -1.98703e-06)
(5.16551 0 -1.1451e-06)
(5.16552 0 -1.63877e-07)
(5.16552 0 6.21965e-07)
(5.16551 0 1.40355e-06)
(5.16548 0 1.55558e-06)
(5.16547 0 -1.51681e-06)
(5.32422 0 -0.0122799)
(5.18391 0 -0.00882237)
(5.24906 0 -0.00548997)
(5.29975 0 -0.00377249)
(5.33904 0 -0.00277761)
(5.37019 0 -0.00214807)
(5.39548 0 -0.00172302)
(5.41645 0 -0.00142116)
(5.43416 0 -0.00119817)
(5.44935 0 -0.00102804)
(5.46254 0 -0.000894768)
(5.47413 0 -0.000788032)
(5.4844 0 -0.000700937)
(5.49357 0 -0.000628726)
(5.50183 0 -0.000568036)
(5.5093 0 -0.000516425)
(5.51611 0 -0.000472089)
(5.52233 0 -0.000433667)
(5.52805 0 -0.000400111)
(5.53332 0 -0.000370603)
(5.5382 0 -0.0003445)
(5.54273 0 -0.000321284)
(5.54695 0 -0.000300538)
(5.55089 0 -0.000281913)
(5.55458 0 -0.00026513)
(5.55804 0 -0.000249949)
(5.56131 0 -0.000236171)
(5.56438 0 -0.000223626)
(5.56729 0 -0.000212172)
(5.57004 0 -0.000201684)
(5.57265 0 -0.000192054)
(5.57513 0 -0.00018319)
(5.57749 0 -0.000175014)
(5.57974 0 -0.000167453)
(5.58189 0 -0.000160447)
(5.58394 0 -0.000153939)
(5.58591 0 -0.000147885)
(5.58779 0 -0.00014224)
(5.5896 0 -0.000136967)
(5.59134 0 -0.000132031)
(5.59301 0 -0.000127405)
(5.59462 0 -0.000123059)
(5.59617 0 -0.000118972)
(5.59766 0 -0.000115119)
(5.59911 0 -0.000111483)
(5.60051 0 -0.000108046)
(5.60186 0 -0.000104791)
(5.60316 0 -0.000101704)
(5.60443 0 -9.87731e-05)
(5.60566 0 -9.59848e-05)
(5.60685 0 -9.33296e-05)
(5.608 0 -9.07957e-05)
(5.60913 0 -8.83776e-05)
(5.61022 0 -8.60638e-05)
(5.61128 0 -8.38488e-05)
(5.61231 0 -8.17238e-05)
(5.61331 0 -7.96858e-05)
(5.61429 0 -7.77261e-05)
(5.61524 0 -7.5841e-05)
(5.61616 0 -7.40241e-05)
(5.61707 0 -7.22741e-05)
(5.61795 0 -7.05838e-05)
(5.6188 0 -6.89513e-05)
(5.61964 0 -6.73715e-05)
(5.62046 0 -6.58444e-05)
(5.62126 0 -6.43639e-05)
(5.62204 0 -6.29291e-05)
(5.6228 0 -6.15359e-05)
(5.62354 0 -6.0185e-05)
(5.62426 0 -5.88714e-05)
(5.62497 0 -5.75949e-05)
(5.62567 0 -5.63518e-05)
(5.62634 0 -5.51436e-05)
(5.627 0 -5.39657e-05)
(5.62765 0 -5.28185e-05)
(5.62828 0 -5.16987e-05)
(5.6289 0 -5.06083e-05)
(5.62951 0 -4.95431e-05)
(5.6301 0 -4.85035e-05)
(5.63068 0 -4.7487e-05)
(5.63124 0 -4.64955e-05)
(5.6318 0 -4.55251e-05)
(5.63234 0 -4.45767e-05)
(5.63287 0 -4.36477e-05)
(5.63339 0 -4.27402e-05)
(5.6339 0 -4.18507e-05)
(5.63439 0 -4.09802e-05)
(5.63488 0 -4.01266e-05)
(5.63535 0 -3.92919e-05)
(5.63582 0 -3.84731e-05)
(5.63628 0 -3.76714e-05)
(5.63672 0 -3.68849e-05)
(5.63716 0 -3.61158e-05)
(5.63758 0 -3.53612e-05)
(5.638 0 -3.46226e-05)
(5.63841 0 -3.38978e-05)
(5.63881 0 -3.31892e-05)
(5.6392 0 -3.24935e-05)
(5.63958 0 -3.18122e-05)
(5.63996 0 -3.11431e-05)
(5.64033 0 -3.0488e-05)
(5.64068 0 -2.98438e-05)
(5.64104 0 -2.92115e-05)
(5.64138 0 -2.85891e-05)
(5.64171 0 -2.79778e-05)
(5.64204 0 -2.73751e-05)
(5.64236 0 -2.67814e-05)
(5.64268 0 -2.61954e-05)
(5.64299 0 -2.56173e-05)
(5.64329 0 -2.50459e-05)
(5.64358 0 -2.44805e-05)
(5.64386 0 -2.3921e-05)
(5.64414 0 -2.33664e-05)
(5.64442 0 -2.28168e-05)
(5.64468 0 -2.22709e-05)
(5.64494 0 -2.17293e-05)
(5.6452 0 -2.11896e-05)
(5.64544 0 -2.0654e-05)
(5.64568 0 -2.01192e-05)
(5.64592 0 -1.95877e-05)
(5.64615 0 -1.90549e-05)
(5.64637 0 -1.85251e-05)
(5.64658 0 -1.79934e-05)
(5.64679 0 -1.74633e-05)
(5.64699 0 -1.69284e-05)
(5.64719 0 -1.63947e-05)
(5.64738 0 -1.58551e-05)
(5.64756 0 -1.53144e-05)
(5.64774 0 -1.47634e-05)
(5.64791 0 -1.42099e-05)
(5.64808 0 -1.36438e-05)
(5.64823 0 -1.30706e-05)
(5.64839 0 -1.24771e-05)
(5.64853 0 -1.18721e-05)
(5.64867 0 -1.12409e-05)
(5.6488 0 -1.05881e-05)
(5.64892 0 -9.89475e-06)
(5.64903 0 -9.16835e-06)
(5.64914 0 -8.38705e-06)
(5.64924 0 -7.55234e-06)
(5.64932 0 -6.63707e-06)
(5.6494 0 -5.64753e-06)
(5.64946 0 -4.55737e-06)
(5.64952 0 -3.37628e-06)
(5.64956 0 -2.07035e-06)
(5.64958 0 -5.6144e-07)
(5.64959 0 7.0161e-07)
(5.64958 0 1.81653e-06)
(5.64956 0 1.90868e-06)
(5.64955 0 -3.07371e-06)
(5.68669 0 -0.0128471)
(5.54593 0 -0.0110929)
(5.59953 0 -0.00758997)
(5.647 0 -0.00546085)
(5.68639 0 -0.00413461)
(5.71903 0 -0.00325638)
(5.74636 0 -0.00264452)
(5.76954 0 -0.00220004)
(5.78945 0 -0.00186604)
(5.80675 0 -0.00160787)
(5.82194 0 -0.00140355)
(5.83539 0 -0.00123859)
(5.84739 0 -0.00110313)
(5.85818 0 -0.000990242)
(5.86793 0 -0.000894978)
(5.87679 0 -0.0008137)
(5.88488 0 -0.000743695)
(5.8923 0 -0.000682897)
(5.89913 0 -0.000629709)
(5.90544 0 -0.000582874)
(5.91129 0 -0.000541396)
(5.91673 0 -0.000504475)
(5.9218 0 -0.000471457)
(5.92654 0 -0.000441802)
(5.93099 0 -0.000415068)
(5.93516 0 -0.000390881)
(5.93908 0 -0.000368925)
(5.94279 0 -0.000348934)
(5.94628 0 -0.00033068)
(5.9496 0 -0.000313968)
(5.95274 0 -0.000298627)
(5.95572 0 -0.00028451)
(5.95856 0 -0.000271491)
(5.96126 0 -0.000259457)
(5.96384 0 -0.000248309)
(5.96631 0 -0.000237961)
(5.96867 0 -0.000228339)
(5.97093 0 -0.000219371)
(5.9731 0 -0.000210999)
(5.97518 0 -0.000203169)
(5.97717 0 -0.000195834)
(5.9791 0 -0.000188949)
(5.98095 0 -0.000182477)
(5.98274 0 -0.000176383)
(5.98446 0 -0.000170636)
(5.98612 0 -0.000165208)
(5.98773 0 -0.000160072)
(5.98929 0 -0.000155206)
(5.99079 0 -0.000150591)
(5.99225 0 -0.000146204)
(5.99366 0 -0.000142031)
(5.99503 0 -0.000138054)
(5.99636 0 -0.000134261)
(5.99765 0 -0.000130637)
(5.9989 0 -0.00012717)
(6.00012 0 -0.00012385)
(6.0013 0 -0.000120668)
(6.00245 0 -0.000117612)
(6.00357 0 -0.000114676)
(6.00467 0 -0.00011185)
(6.00573 0 -0.000109131)
(6.00676 0 -0.000106508)
(6.00777 0 -0.000103977)
(6.00876 0 -0.000101532)
(6.00971 0 -9.91703e-05)
(6.01065 0 -9.6884e-05)
(6.01156 0 -9.46705e-05)
(6.01245 0 -9.25242e-05)
(6.01332 0 -9.04446e-05)
(6.01417 0 -8.84253e-05)
(6.015 0 -8.64647e-05)
(6.01581 0 -8.45583e-05)
(6.0166 0 -8.27063e-05)
(6.01737 0 -8.09034e-05)
(6.01813 0 -7.91488e-05)
(6.01887 0 -7.74386e-05)
(6.01959 0 -7.57738e-05)
(6.02029 0 -7.41496e-05)
(6.02098 0 -7.25659e-05)
(6.02165 0 -7.10192e-05)
(6.02231 0 -6.95109e-05)
(6.02296 0 -6.80366e-05)
(6.02359 0 -6.65967e-05)
(6.0242 0 -6.51881e-05)
(6.02481 0 -6.38123e-05)
(6.0254 0 -6.24655e-05)
(6.02597 0 -6.11482e-05)
(6.02654 0 -5.98581e-05)
(6.02709 0 -5.85968e-05)
(6.02763 0 -5.7361e-05)
(6.02816 0 -5.61517e-05)
(6.02867 0 -5.49668e-05)
(6.02918 0 -5.38081e-05)
(6.02968 0 -5.26726e-05)
(6.03016 0 -5.15614e-05)
(6.03063 0 -5.04723e-05)
(6.0311 0 -4.94071e-05)
(6.03155 0 -4.83625e-05)
(6.03199 0 -4.73394e-05)
(6.03243 0 -4.63354e-05)
(6.03285 0 -4.53519e-05)
(6.03327 0 -4.43856e-05)
(6.03367 0 -4.3437e-05)
(6.03407 0 -4.25038e-05)
(6.03446 0 -4.15869e-05)
(6.03484 0 -4.06835e-05)
(6.03521 0 -3.97935e-05)
(6.03557 0 -3.89155e-05)
(6.03593 0 -3.80494e-05)
(6.03628 0 -3.71937e-05)
(6.03661 0 -3.63475e-05)
(6.03695 0 -3.55103e-05)
(6.03727 0 -3.4681e-05)
(6.03758 0 -3.38595e-05)
(6.03789 0 -3.30442e-05)
(6.03819 0 -3.22356e-05)
(6.03848 0 -3.1431e-05)
(6.03877 0 -3.06324e-05)
(6.03905 0 -2.98364e-05)
(6.03932 0 -2.90452e-05)
(6.03958 0 -2.8254e-05)
(6.03984 0 -2.74667e-05)
(6.04009 0 -2.66784e-05)
(6.04033 0 -2.58921e-05)
(6.04056 0 -2.51013e-05)
(6.04079 0 -2.43115e-05)
(6.04101 0 -2.35152e-05)
(6.04122 0 -2.27168e-05)
(6.04143 0 -2.19064e-05)
(6.04163 0 -2.10914e-05)
(6.04182 0 -2.02607e-05)
(6.042 0 -1.94189e-05)
(6.04218 0 -1.85518e-05)
(6.04234 0 -1.76667e-05)
(6.04251 0 -1.67471e-05)
(6.04266 0 -1.57958e-05)
(6.0428 0 -1.47912e-05)
(6.04294 0 -1.37376e-05)
(6.04306 0 -1.26097e-05)
(6.04318 0 -1.14048e-05)
(6.04328 0 -1.00908e-05)
(6.04338 0 -8.66907e-06)
(6.04346 0 -7.1084e-06)
(6.04353 0 -5.41581e-06)
(6.04358 0 -3.55799e-06)
(6.04362 0 -1.4473e-06)
(6.04364 0 4.39874e-07)
(6.04364 0 1.99741e-06)
(6.04363 0 2.08948e-06)
(6.04363 0 -4.81361e-06)
(6.00868 0 -0.0127923)
(5.86748 0 -0.0128018)
(5.90755 0 -0.0095549)
(5.94874 0 -0.00719858)
(5.98555 0 -0.00561292)
(6.01755 0 -0.004511)
(6.04527 0 -0.00371692)
(6.06938 0 -0.0031255)
(6.09049 0 -0.00267254)
(6.10913 0 -0.0023171)
(6.12569 0 -0.00203239)
(6.1405 0 -0.00180026)
(6.15384 0 -0.00160807)
(6.16591 0 -0.00144683)
(6.17688 0 -0.00130999)
(6.18691 0 -0.00119268)
(6.19611 0 -0.00109122)
(6.20459 0 -0.00100279)
(6.21241 0 -0.000925201)
(6.21967 0 -0.000856696)
(6.22641 0 -0.000795887)
(6.23269 0 -0.000741648)
(6.23856 0 -0.000693057)
(6.24405 0 -0.000649348)
(6.24921 0 -0.000609889)
(6.25406 0 -0.000574146)
(6.25863 0 -0.000541666)
(6.26294 0 -0.000512065)
(6.26702 0 -0.000485015)
(6.27088 0 -0.000460232)
(6.27455 0 -0.000437468)
(6.27804 0 -0.000416511)
(6.28135 0 -0.000397176)
(6.28451 0 -0.000379298)
(6.28753 0 -0.000362732)
(6.29041 0 -0.000347352)
(6.29317 0 -0.000333048)
(6.29581 0 -0.000319718)
(6.29834 0 -0.000307274)
(6.30077 0 -0.000295635)
(6.30311 0 -0.000284734)
(6.30535 0 -0.000274505)
(6.30752 0 -0.000264891)
(6.3096 0 -0.000255841)
(6.31161 0 -0.00024731)
(6.31355 0 -0.000239254)
(6.31542 0 -0.000231637)
(6.31724 0 -0.000224423)
(6.31899 0 -0.000217584)
(6.32069 0 -0.000211089)
(6.32233 0 -0.000204913)
(6.32392 0 -0.000199031)
(6.32547 0 -0.000193426)
(6.32696 0 -0.000188074)
(6.32842 0 -0.000182959)
(6.32983 0 -0.000178063)
(6.33121 0 -0.000173375)
(6.33254 0 -0.000168877)
(6.33384 0 -0.00016456)
(6.3351 0 -0.000160408)
(6.33634 0 -0.000156416)
(6.33753 0 -0.000152569)
(6.3387 0 -0.000148862)
(6.33984 0 -0.000145283)
(6.34095 0 -0.000141828)
(6.34203 0 -0.000138488)
(6.34308 0 -0.000135257)
(6.34411 0 -0.000132128)
(6.34511 0 -0.000129098)
(6.34609 0 -0.000126159)
(6.34705 0 -0.000123308)
(6.34798 0 -0.000120538)
(6.34889 0 -0.00011785)
(6.34978 0 -0.000115235)
(6.35065 0 -0.000112693)
(6.3515 0 -0.000110218)
(6.35233 0 -0.000107809)
(6.35314 0 -0.000105462)
(6.35393 0 -0.000103175)
(6.3547 0 -0.000100944)
(6.35546 0 -9.87686e-05)
(6.3562 0 -9.66449e-05)
(6.35693 0 -9.45719e-05)
(6.35763 0 -9.25461e-05)
(6.35833 0 -9.05681e-05)
(6.359 0 -8.86339e-05)
(6.35966 0 -8.67433e-05)
(6.36031 0 -8.48935e-05)
(6.36095 0 -8.30855e-05)
(6.36156 0 -8.1316e-05)
(6.36217 0 -7.95853e-05)
(6.36276 0 -7.78911e-05)
(6.36334 0 -7.62348e-05)
(6.36391 0 -7.46131e-05)
(6.36446 0 -7.30266e-05)
(6.36501 0 -7.14729e-05)
(6.36554 0 -6.99532e-05)
(6.36606 0 -6.84638e-05)
(6.36657 0 -6.70054e-05)
(6.36706 0 -6.55749e-05)
(6.36755 0 -6.41732e-05)
(6.36803 0 -6.27968e-05)
(6.36849 0 -6.14455e-05)
(6.36895 0 -6.01167e-05)
(6.36939 0 -5.88108e-05)
(6.36983 0 -5.75246e-05)
(6.37025 0 -5.62578e-05)
(6.37067 0 -5.50085e-05)
(6.37107 0 -5.37762e-05)
(6.37147 0 -5.25592e-05)
(6.37186 0 -5.13563e-05)
(6.37224 0 -5.01668e-05)
(6.37261 0 -4.89891e-05)
(6.37297 0 -4.78231e-05)
(6.37332 0 -4.66668e-05)
(6.37367 0 -4.55206e-05)
(6.374 0 -4.43815e-05)
(6.37433 0 -4.32512e-05)
(6.37465 0 -4.21262e-05)
(6.37496 0 -4.10082e-05)
(6.37526 0 -3.98923e-05)
(6.37555 0 -3.87822e-05)
(6.37584 0 -3.76725e-05)
(6.37611 0 -3.6566e-05)
(6.37638 0 -3.54558e-05)
(6.37664 0 -3.43469e-05)
(6.3769 0 -3.32315e-05)
(6.37714 0 -3.21133e-05)
(6.37738 0 -3.0982e-05)
(6.37761 0 -2.98437e-05)
(6.37783 0 -2.86872e-05)
(6.37804 0 -2.75153e-05)
(6.37824 0 -2.63131e-05)
(6.37844 0 -2.50858e-05)
(6.37862 0 -2.38155e-05)
(6.3788 0 -2.25022e-05)
(6.37897 0 -2.11219e-05)
(6.37913 0 -1.96751e-05)
(6.37928 0 -1.81326e-05)
(6.37941 0 -1.64864e-05)
(6.37954 0 -1.46998e-05)
(6.37965 0 -1.27678e-05)
(6.37976 0 -1.0654e-05)
(6.37984 0 -8.36085e-06)
(6.37991 0 -5.85835e-06)
(6.37997 0 -3.06591e-06)
(6.38001 0 -4.39643e-07)
(6.38002 0 1.71878e-06)
(6.38003 0 1.88242e-06)
(6.38004 0 -6.79478e-06)
(6.30071 0 -0.0123398)
(6.16113 0 -0.013946)
(6.18842 0 -0.0112497)
(6.2217 0 -0.00887126)
(6.25411 0 -0.00712744)
(6.28382 0 -0.00585154)
(6.31052 0 -0.00489817)
(6.3344 0 -0.00416873)
(6.35577 0 -0.00359829)
(6.37496 0 -0.00314318)
(6.39224 0 -0.00277368)
(6.40789 0 -0.00246904)
(6.42211 0 -0.00221445)
(6.43509 0 -0.00199915)
(6.44699 0 -0.00181518)
(6.45792 0 -0.00165653)
(6.46801 0 -0.00151862)
(6.47735 0 -0.00139788)
(6.48601 0 -0.00129151)
(6.49406 0 -0.00119727)
(6.50158 0 -0.00111334)
(6.5086 0 -0.00103828)
(6.51519 0 -0.00097085)
(6.52136 0 -0.000910058)
(6.52718 0 -0.000855063)
(6.53265 0 -0.00080515)
(6.53782 0 -0.000759715)
(6.54271 0 -0.000718243)
(6.54734 0 -0.000680289)
(6.55173 0 -0.00064547)
(6.55591 0 -0.000613451)
(6.55987 0 -0.000583942)
(6.56365 0 -0.00055669)
(6.56726 0 -0.000531469)
(6.5707 0 -0.000508082)
(6.574 0 -0.000486355)
(6.57715 0 -0.000466135)
(6.58017 0 -0.000447281)
(6.58306 0 -0.000429673)
(6.58584 0 -0.000413199)
(6.58852 0 -0.000397763)
(6.59109 0 -0.000383275)
(6.59357 0 -0.000369657)
(6.59595 0 -0.000356836)
(6.59825 0 -0.00034475)
(6.60048 0 -0.000333337)
(6.60262 0 -0.000322546)
(6.6047 0 -0.000312328)
(6.6067 0 -0.000302642)
(6.60864 0 -0.000293445)
(6.61053 0 -0.000284702)
(6.61235 0 -0.00027638)
(6.61412 0 -0.00026845)
(6.61583 0 -0.000260882)
(6.61749 0 -0.000253653)
(6.61911 0 -0.000246737)
(6.62068 0 -0.000240117)
(6.62221 0 -0.000233771)
(6.62369 0 -0.000227681)
(6.62514 0 -0.00022183)
(6.62654 0 -0.000216206)
(6.62791 0 -0.000210792)
(6.62924 0 -0.000205577)
(6.63054 0 -0.000200547)
(6.6318 0 -0.000195694)
(6.63304 0 -0.000191005)
(6.63424 0 -0.000186473)
(6.63541 0 -0.000182088)
(6.63656 0 -0.000177844)
(6.63767 0 -0.000173731)
(6.63876 0 -0.000169743)
(6.63982 0 -0.000165874)
(6.64086 0 -0.000162119)
(6.64187 0 -0.000158471)
(6.64286 0 -0.000154926)
(6.64383 0 -0.000151477)
(6.64478 0 -0.000148123)
(6.6457 0 -0.000144857)
(6.6466 0 -0.000141677)
(6.64748 0 -0.000138577)
(6.64834 0 -0.000135556)
(6.64918 0 -0.000132609)
(6.65001 0 -0.000129734)
(6.65081 0 -0.000126927)
(6.6516 0 -0.000124187)
(6.65237 0 -0.00012151)
(6.65312 0 -0.000118895)
(6.65386 0 -0.000116339)
(6.65458 0 -0.000113841)
(6.65528 0 -0.000111398)
(6.65597 0 -0.00010901)
(6.65665 0 -0.000106674)
(6.6573 0 -0.000104391)
(6.65795 0 -0.000102157)
(6.65858 0 -9.99727e-05)
(6.6592 0 -9.78344e-05)
(6.6598 0 -9.5743e-05)
(6.66039 0 -9.36944e-05)
(6.66097 0 -9.16885e-05)
(6.66153 0 -8.97218e-05)
(6.66209 0 -8.77944e-05)
(6.66263 0 -8.59023e-05)
(6.66316 0 -8.40448e-05)
(6.66367 0 -8.22188e-05)
(6.66418 0 -8.04239e-05)
(6.66467 0 -7.86568e-05)
(6.66516 0 -7.69165e-05)
(6.66563 0 -7.52007e-05)
(6.66609 0 -7.35086e-05)
(6.66654 0 -7.18381e-05)
(6.66699 0 -7.01877e-05)
(6.66742 0 -6.85564e-05)
(6.66784 0 -6.69422e-05)
(6.66825 0 -6.53449e-05)
(6.66865 0 -6.37621e-05)
(6.66904 0 -6.21939e-05)
(6.66942 0 -6.06371e-05)
(6.66979 0 -5.9093e-05)
(6.67015 0 -5.7558e-05)
(6.67051 0 -5.60334e-05)
(6.67085 0 -5.45143e-05)
(6.67119 0 -5.30034e-05)
(6.67151 0 -5.14956e-05)
(6.67183 0 -4.99929e-05)
(6.67213 0 -4.84883e-05)
(6.67243 0 -4.6986e-05)
(6.67272 0 -4.54779e-05)
(6.673 0 -4.39668e-05)
(6.67327 0 -4.24421e-05)
(6.67353 0 -4.09087e-05)