/*--------------------------------*- C++ -*----------------------------------*\
| =========                 |                                                 |
| \\      /  F ield         | OpenFOAM: The Open Source CFD Toolbox           |
|  \\    /   O peration     | Version:  5.x                                   |
|   \\  /    A nd           | Web:      www.OpenFOAM.org                      |
|    \\/     M anipulation  |                                                 |
\*---------------------------------------------------------------------------*/
FoamFile
{
    version     2.0;
    format      ascii;
    class       volScalarField;
    location    "0";
    object      alphat;
}
// * * * * * * * * * * * * * * * * * * * * * * * * * * * * * * * * * * * * * //

dimensions      [1 -1 -1 0 0 0 0];

internalField   nonuniform List<scalar> 
86400
(
0.0214343
0.00730645
0.0072935
0.0072913
0.00729238
0.00729469
0.00729743
0.0073003
0.00730315
0.00730591
0.00730857
0.00731112
0.00731354
0.00731585
0.00731805
0.00732014
0.00732213
0.00732402
0.00732583
0.00732756
0.00732921
0.00733078
0.00733229
0.00733374
0.00733513
0.00733647
0.00733775
0.00733899
0.00734018
0.00734132
0.00734243
0.0073435
0.00734454
0.00734554
0.00734651
0.00734745
0.00734837
0.00734925
0.00735012
0.00735096
0.00735177
0.00735257
0.00735334
0.0073541
0.00735483
0.00735555
0.00735625
0.00735694
0.00735761
0.00735826
0.0073589
0.00735953
0.00736014
0.00736074
0.00736133
0.0073619
0.00736246
0.00736302
0.00736356
0.00736409
0.00736461
0.00736512
0.00736562
0.00736611
0.00736659
0.00736706
0.00736752
0.00736797
0.00736842
0.00736886
0.00736929
0.00736971
0.00737012
0.00737053
0.00737092
0.00737131
0.0073717
0.00737207
0.00737244
0.0073728
0.00737316
0.00737351
0.00737385
0.00737419
0.00737452
0.00737484
0.00737516
0.00737547
0.00737577
0.00737607
0.00737637
0.00737666
0.00737694
0.00737722
0.00737749
0.00737775
0.00737802
0.00737827
0.00737852
0.00737877
0.00737901
0.00737925
0.00737948
0.0073797
0.00737993
0.00738014
0.00738036
0.00738056
0.00738077
0.00738097
0.00738116
0.00738135
0.00738153
0.00738171
0.00738189
0.00738206
0.00738223
0.00738239
0.00738255
0.00738271
0.00738286
0.00738301
0.00738315
0.00738328
0.00738342
0.00738355
0.00738367
0.00738379
0.00738391
0.00738402
0.00738413
0.00738423
0.00738433
0.00738442
0.00738451
0.00738459
0.00738467
0.00738474
0.00738481
0.00738487
0.00738492
0.00738497
0.00738501
0.00738505
0.00738507
0.00738509
0.0073851
0.00738511
0.00738511
0.00738514
0.055739
0.0359721
0.035335
0.034978
0.0347511
0.0345954
0.0344828
0.0343982
0.0343329
0.0342813
0.03424
0.0342063
0.0341787
0.0341558
0.0341366
0.0341206
0.034107
0.0340956
0.0340859
0.0340776
0.0340706
0.0340646
0.0340595
0.0340552
0.0340516
0.0340485
0.0340459
0.0340438
0.034042
0.0340406
0.0340395
0.0340386
0.0340379
0.0340375
0.0340372
0.0340371
0.0340371
0.0340372
0.0340375
0.0340378
0.0340382
0.0340387
0.0340393
0.0340399
0.0340406
0.0340413
0.0340421
0.0340429
0.0340437
0.0340446
0.0340455
0.0340464
0.0340473
0.0340483
0.0340493
0.0340503
0.0340512
0.0340523
0.0340533
0.0340543
0.0340553
0.0340563
0.0340573
0.0340584
0.0340594
0.0340604
0.0340614
0.0340624
0.0340634
0.0340644
0.0340654
0.0340664
0.0340674
0.0340684
0.0340694
0.0340703
0.0340713
0.0340723
0.0340732
0.0340741
0.0340751
0.034076
0.0340769
0.0340778
0.0340787
0.0340796
0.0340804
0.0340813
0.0340822
0.034083
0.0340838
0.0340847
0.0340855
0.0340863
0.0340871
0.0340879
0.0340886
0.0340894
0.0340902
0.0340909
0.0340917
0.0340924
0.0340931
0.0340938
0.0340945
0.0340952
0.0340959
0.0340966
0.0340973
0.0340979
0.0340986
0.0340992
0.0340998
0.0341005
0.0341011
0.0341017
0.0341023
0.0341029
0.0341035
0.034104
0.0341046
0.0341052
0.0341057
0.0341062
0.0341068
0.0341073
0.0341078
0.0341083
0.0341088
0.0341093
0.0341098
0.0341102
0.0341107
0.0341111
0.0341116
0.034112
0.0341125
0.0341129
0.0341133
0.0341137
0.0341141
0.0341145
0.0341149
0.0341153
0.0341157
0.034116
0.0341164
0.0341167
0.0341171
0.0341173
0.0940622
0.0717473
0.070361
0.0694615
0.0688045
0.0682999
0.0679003
0.0675765
0.0673095
0.067086
0.0668966
0.0667344
0.0665942
0.0664721
0.066365
0.0662706
0.0661868
0.0661122
0.0660454
0.0659854
0.0659313
0.0658824
0.0658381
0.0657977
0.065761
0.0657273
0.0656965
0.0656683
0.0656423
0.0656184
0.0655963
0.0655758
0.0655569
0.0655394
0.0655231
0.065508
0.0654939
0.0654808
0.0654686
0.0654572
0.0654465
0.0654365
0.0654272
0.0654185
0.0654103
0.0654026
0.0653954
0.0653886
0.0653822
0.0653762
0.0653706
0.0653653
0.0653603
0.0653556
0.0653512
0.065347
0.0653431
0.0653394
0.0653359
0.0653326
0.0653294
0.0653265
0.0653237
0.0653211
0.0653186
0.0653162
0.065314
0.0653119
0.0653099
0.065308
0.0653062
0.0653046
0.065303
0.0653015
0.0653
0.0652987
0.0652974
0.0652962
0.0652951
0.065294
0.065293
0.0652921
0.0652912
0.0652903
0.0652895
0.0652887
0.065288
0.0652874
0.0652867
0.0652862
0.0652856
0.0652851
0.0652846
0.0652842
0.0652838
0.0652834
0.065283
0.0652827
0.0652824
0.0652821
0.0652819
0.0652817
0.0652815
0.0652813
0.0652811
0.065281
0.0652809
0.0652808
0.0652807
0.0652806
0.0652806
0.0652805
0.0652805
0.0652805
0.0652805
0.0652806
0.0652806
0.0652807
0.0652808
0.0652808
0.0652809
0.065281
0.0652812
0.0652813
0.0652814
0.0652816
0.0652817
0.0652819
0.0652821
0.0652823
0.0652825
0.0652827
0.0652829
0.0652831
0.0652833
0.0652836
0.0652838
0.0652841
0.0652843
0.0652846
0.0652849
0.0652852
0.0652855
0.0652859
0.0652862
0.0652866
0.065287
0.0652874
0.0652878
0.0652883
0.135283
0.112193
0.110765
0.109678
0.108771
0.107994
0.107325
0.106744
0.106237
0.105794
0.105402
0.105056
0.104747
0.10447
0.104222
0.103997
0.103794
0.103609
0.10344
0.103286
0.103145
0.103015
0.102895
0.102784
0.102681
0.102586
0.102498
0.102415
0.102339
0.102267
0.1022
0.102137
0.102078
0.102023
0.10197
0.101921
0.101875
0.101832
0.10179
0.101751
0.101714
0.101679
0.101646
0.101615
0.101585
0.101556
0.101529
0.101503
0.101479
0.101455
0.101433
0.101411
0.101391
0.101371
0.101352
0.101335
0.101317
0.101301
0.101285
0.10127
0.101255
0.101241
0.101228
0.101215
0.101202
0.10119
0.101179
0.101168
0.101157
0.101146
0.101136
0.101127
0.101117
0.101108
0.1011
0.101091
0.101083
0.101075
0.101068
0.10106
0.101053
0.101046
0.101039
0.101033
0.101027
0.101021
0.101015
0.101009
0.101003
0.100998
0.100993
0.100988
0.100983
0.100978
0.100973
0.100969
0.100964
0.10096
0.100956
0.100952
0.100948
0.100944
0.100941
0.100937
0.100934
0.10093
0.100927
0.100924
0.100921
0.100918
0.100915
0.100912
0.100909
0.100907
0.100904
0.100902
0.100899
0.100897
0.100895
0.100893
0.100891
0.100889
0.100887
0.100885
0.100883
0.100881
0.100879
0.100878
0.100876
0.100875
0.100873
0.100872
0.10087
0.100869
0.100868
0.100867
0.100865
0.100864
0.100863
0.100862
0.100861
0.10086
0.10086
0.100859
0.100858
0.100857
0.100857
0.100856
0.100856
0.100856
0.179964
0.156091
0.155171
0.154342
0.15353
0.152735
0.151974
0.151258
0.150593
0.149978
0.149412
0.148892
0.148414
0.147974
0.147569
0.147195
0.146849
0.146529
0.146233
0.145957
0.145701
0.145462
0.145239
0.14503
0.144835
0.144652
0.14448
0.144319
0.144167
0.144023
0.143888
0.143761
0.14364
0.143526
0.143417
0.143315
0.143217
0.143124
0.143036
0.142952
0.142872
0.142796
0.142723
0.142654
0.142587
0.142524
0.142463
0.142405
0.142349
0.142295
0.142244
0.142194
0.142147
0.142101
0.142058
0.142015
0.141975
0.141935
0.141898
0.141861
0.141826
0.141792
0.141759
0.141727
0.141697
0.141667
0.141638
0.141611
0.141584
0.141557
0.141532
0.141508
0.141484
0.141461
0.141438
0.141416
0.141395
0.141375
0.141355
0.141335
0.141316
0.141298
0.14128
0.141263
0.141246
0.141229
0.141213
0.141198
0.141182
0.141168
0.141153
0.141139
0.141125
0.141112
0.141099
0.141086
0.141074
0.141062
0.14105
0.141038
0.141027
0.141016
0.141006
0.140995
0.140985
0.140975
0.140965
0.140956
0.140947
0.140938
0.140929
0.140921
0.140912
0.140904
0.140896
0.140889
0.140881
0.140874
0.140867
0.14086
0.140853
0.140846
0.14084
0.140833
0.140827
0.140821
0.140815
0.14081
0.140804
0.140799
0.140794
0.140789
0.140784
0.140779
0.140774
0.140769
0.140765
0.140761
0.140756
0.140752
0.140748
0.140744
0.140741
0.140737
0.140734
0.14073
0.140727
0.140724
0.140721
0.140719
0.22878
0.20354
0.203264
0.202947
0.202514
0.201973
0.201357
0.200703
0.200037
0.199377
0.198736
0.198118
0.197528
0.196967
0.196436
0.195933
0.195459
0.195011
0.194588
0.194188
0.193811
0.193455
0.193119
0.1928
0.192499
0.192213
0.191942
0.191686
0.191442
0.19121
0.19099
0.190781
0.190581
0.190391
0.19021
0.190036
0.189871
0.189713
0.189562
0.189417
0.189279
0.189146
0.189019
0.188897
0.188779
0.188667
0.188558
0.188454
0.188354
0.188257
0.188164
0.188075
0.187988
0.187905
0.187824
0.187746
0.187671
0.187598
0.187528
0.18746
0.187394
0.18733
0.187268
0.187208
0.18715
0.187094
0.187039
0.186986
0.186934
0.186884
0.186835
0.186788
0.186742
0.186697
0.186653
0.186611
0.186569
0.186529
0.18649
0.186451
0.186414
0.186378
0.186342
0.186308
0.186274
0.186241
0.186209
0.186178
0.186147
0.186117
0.186088
0.186059
0.186032
0.186004
0.185978
0.185952
0.185927
0.185902
0.185878
0.185854
0.185831
0.185808
0.185786
0.185764
0.185743
0.185722
0.185702
0.185682
0.185663
0.185644
0.185626
0.185608
0.18559
0.185573
0.185556
0.185539
0.185523
0.185507
0.185492
0.185477
0.185462
0.185447
0.185433
0.18542
0.185406
0.185393
0.18538
0.185367
0.185355
0.185343
0.185331
0.18532
0.185308
0.185297
0.185287
0.185276
0.185266
0.185256
0.185246
0.185236
0.185227
0.185218
0.185209
0.1852
0.185191
0.185183
0.185175
0.185167
0.18516
0.185154
0.282327
0.255096
0.255335
0.255551
0.255623
0.255514
0.255242
0.254845
0.254359
0.253815
0.253236
0.252641
0.252042
0.251446
0.250861
0.25029
0.249735
0.249199
0.248682
0.248185
0.247708
0.24725
0.24681
0.246389
0.245986
0.2456
0.24523
0.244875
0.244536
0.24421
0.243898
0.243599
0.243312
0.243037
0.242772
0.242519
0.242275
0.24204
0.241815
0.241598
0.241389
0.241188
0.240994
0.240808
0.240628
0.240454
0.240286
0.240125
0.239968
0.239817
0.239671
0.23953
0.239393
0.239261
0.239133
0.239008
0.238888
0.238771
0.238658
0.238548
0.238441
0.238338
0.238237
0.238139
0.238044
0.237952
0.237862
0.237774
0.237689
0.237606
0.237525
0.237447
0.23737
0.237295
0.237222
0.237151
0.237081
0.237014
0.236948
0.236883
0.23682
0.236758
0.236698
0.23664
0.236582
0.236526
0.236471
0.236418
0.236365
0.236314
0.236264
0.236215
0.236167
0.23612
0.236074
0.236029
0.235985
0.235941
0.235899
0.235858
0.235817
0.235778
0.235739
0.235701
0.235664
0.235627
0.235592
0.235557
0.235523
0.235489
0.235456
0.235424
0.235392
0.235362
0.235331
0.235302
0.235273
0.235244
0.235216
0.235189
0.235162
0.235136
0.23511
0.235085
0.235061
0.235037
0.235013
0.23499
0.234967
0.234945
0.234923
0.234902
0.234881
0.23486
0.23484
0.234821
0.234802
0.234783
0.234764
0.234746
0.234728
0.234711
0.234694
0.234677
0.234661
0.234645
0.234629
0.234614
0.234599
0.234586
0.341166
0.311423
0.311968
0.312589
0.31313
0.313502
0.313679
0.313675
0.313518
0.31324
0.31287
0.312432
0.311946
0.311428
0.310888
0.310337
0.309781
0.309226
0.308676
0.308134
0.307602
0.307081
0.306573
0.306079
0.305598
0.305132
0.304679
0.304241
0.303817
0.303406
0.303009
0.302625
0.302254
0.301895
0.301548
0.301212
0.300887
0.300573
0.30027
0.299976
0.299692
0.299416
0.29915
0.298892
0.298642
0.2984
0.298165
0.297938
0.297717
0.297503
0.297296
0.297094
0.296899
0.296709
0.296524
0.296344
0.29617
0.296
0.295835
0.295675
0.295519
0.295366
0.295218
0.295074
0.294933
0.294796
0.294662
0.294532
0.294404
0.29428
0.294159
0.294041
0.293925
0.293812
0.293702
0.293595
0.293489
0.293386
0.293286
0.293187
0.293091
0.292997
0.292905
0.292815
0.292726
0.29264
0.292555
0.292472
0.292391
0.292312
0.292234
0.292158
0.292083
0.29201
0.291938
0.291868
0.291799
0.291731
0.291665
0.2916
0.291537
0.291474
0.291413
0.291353
0.291294
0.291236
0.29118
0.291124
0.29107
0.291016
0.290964
0.290913
0.290862
0.290813
0.290764
0.290717
0.29067
0.290624
0.290579
0.290535
0.290492
0.290449
0.290408
0.290367
0.290327
0.290287
0.290249
0.290211
0.290174
0.290137
0.290102
0.290066
0.290032
0.289998
0.289965
0.289933
0.289901
0.289869
0.289838
0.289808
0.289778
0.289749
0.289721
0.289692
0.289665
0.289638
0.289611
0.289585
0.28956
0.289536
0.405858
0.373186
0.373855
0.3747
0.375576
0.376361
0.376984
0.377421
0.377677
0.377771
0.377726
0.377566
0.377313
0.376987
0.376603
0.376174
0.375712
0.375226
0.374723
0.374209
0.373689
0.373166
0.372644
0.372125
0.371611
0.371104
0.370604
0.370114
0.369633
0.369162
0.368702
0.368252
0.367812
0.367384
0.366966
0.366559
0.366162
0.365776
0.3654
0.365033
0.364677
0.36433
0.363992
0.363663
0.363343
0.363032
0.362728
0.362433
0.362145
0.361865
0.361592
0.361326
0.361067
0.360815
0.360568
0.360328
0.360094
0.359866
0.359643
0.359425
0.359213
0.359006
0.358804
0.358606
0.358413
0.358224
0.35804
0.35786
0.357683
0.357511
0.357342
0.357178
0.357016
0.356858
0.356704
0.356552
0.356404
0.356259
0.356117
0.355977
0.355841
0.355707
0.355576
0.355448
0.355322
0.355198
0.355077
0.354959
0.354842
0.354728
0.354616
0.354506
0.354398
0.354292
0.354188
0.354086
0.353986
0.353888
0.353792
0.353697
0.353604
0.353513
0.353423
0.353335
0.353249
0.353164
0.353081
0.352999
0.352919
0.35284
0.352762
0.352686
0.352611
0.352538
0.352466
0.352395
0.352325
0.352257
0.35219
0.352124
0.352059
0.351996
0.351933
0.351872
0.351811
0.351752
0.351694
0.351637
0.35158
0.351525
0.351471
0.351418
0.351365
0.351314
0.351263
0.351213
0.351165
0.351117
0.351069
0.351023
0.350977
0.350932
0.350888
0.350845
0.350802
0.35076
0.350719
0.350679
0.350639
0.350601
0.477007
0.441035
0.441715
0.442627
0.443672
0.444731
0.44571
0.446549
0.447222
0.447726
0.448069
0.448269
0.448341
0.448304
0.448175
0.447968
0.447697
0.447373
0.447006
0.446604
0.446175
0.445724
0.445258
0.444779
0.444292
0.4438
0.443305
0.442809
0.442315
0.441824
0.441336
0.440854
0.440377
0.439907
0.439444
0.438989
0.438541
0.438101
0.437669
0.437246
0.436831
0.436424
0.436025
0.435635
0.435253
0.434879
0.434513
0.434155
0.433804
0.433461
0.433126
0.432797
0.432476
0.432162
0.431854
0.431553
0.431258
0.43097
0.430688
0.430411
0.430141
0.429876
0.429616
0.429362
0.429113
0.428869
0.42863
0.428395
0.428166
0.427941
0.42772
0.427504
0.427291
0.427083
0.426879
0.426679
0.426482
0.426289
0.4261
0.425914
0.425732
0.425553
0.425377
0.425205
0.425036
0.424869
0.424706
0.424545
0.424388
0.424233
0.42408
0.423931
0.423784
0.42364
0.423498
0.423358
0.423221
0.423086
0.422954
0.422824
0.422696
0.42257
0.422446
0.422325
0.422205
0.422088
0.421972
0.421858
0.421747
0.421637
0.421529
0.421422
0.421318
0.421215
0.421114
0.421014
0.420917
0.420821
0.420726
0.420633
0.420541
0.420451
0.420363
0.420276
0.42019
0.420106
0.420023
0.419942
0.419862
0.419783
0.419705
0.419629
0.419554
0.41948
0.419408
0.419336
0.419266
0.419197
0.419129
0.419061
0.418995
0.418931
0.418867
0.418804
0.418742
0.418681
0.418621
0.418562
0.418504
0.418448
0.555265
0.515634
0.516274
0.517152
0.518221
0.5194
0.520594
0.521728
0.522751
0.523634
0.524368
0.524952
0.525396
0.52571
0.525906
0.525999
0.526001
0.525923
0.525777
0.525571
0.525315
0.525016
0.524681
0.524316
0.523925
0.523514
0.523087
0.522646
0.522194
0.521735
0.521271
0.520802
0.520332
0.519861
0.519391
0.518922
0.518456
0.517994
0.517535
0.517081
0.516631
0.516188
0.515749
0.515317
0.514891
0.514471
0.514057
0.51365
0.513249
0.512855
0.512467
0.512086
0.511711
0.511342
0.51098
0.510624
0.510274
0.50993
0.509592
0.50926
0.508934
0.508614
0.508299
0.507989
0.507685
0.507386
0.507093
0.506804
0.50652
0.506242
0.505968
0.505698
0.505433
0.505173
0.504917
0.504665
0.504418
0.504174
0.503935
0.5037
0.503468
0.50324
0.503016
0.502796
0.502579
0.502366
0.502156
0.50195
0.501746
0.501547
0.50135
0.501156
0.500966
0.500778
0.500593
0.500412
0.500233
0.500057
0.499883
0.499713
0.499545
0.49938
0.499217
0.499057
0.498899
0.498743
0.49859
0.49844
0.498292
0.498146
0.498002
0.49786
0.497721
0.497584
0.497449
0.497316
0.497185
0.497056
0.496929
0.496803
0.49668
0.496559
0.49644
0.496322
0.496206
0.496092
0.49598
0.495869
0.49576
0.495653
0.495548
0.495444
0.495341
0.49524
0.495141
0.495043
0.494947
0.494852
0.494758
0.494666
0.494575
0.494486
0.494398
0.494311
0.494225
0.494141
0.494057
0.493976
0.493895
0.493817
0.641341
0.59768
0.598266
0.599064
0.600066
0.601233
0.602498
0.603789
0.605044
0.606218
0.607283
0.608222
0.60903
0.609707
0.61026
0.610696
0.611024
0.611254
0.611394
0.611454
0.611443
0.611369
0.611239
0.61106
0.610837
0.610577
0.610285
0.609964
0.609619
0.609253
0.60887
0.608471
0.608061
0.60764
0.607211
0.606775
0.606335
0.605891
0.605445
0.604997
0.604549
0.604101
0.603655
0.60321
0.602767
0.602328
0.601891
0.601458
0.601029
0.600603
0.600183
0.599766
0.599354
0.598947
0.598545
0.598147
0.597755
0.597367
0.596985
0.596607
0.596235
0.595867
0.595505
0.595147
0.594795
0.594447
0.594104
0.593766
0.593433
0.593104
0.59278
0.59246
0.592145
0.591835
0.591529
0.591227
0.59093
0.590637
0.590348
0.590063
0.589782
0.589505
0.589232
0.588963
0.588698
0.588436
0.588178
0.587924
0.587674
0.587427
0.587183
0.586943
0.586707
0.586473
0.586243
0.586016
0.585793
0.585572
0.585355
0.585141
0.584929
0.584721
0.584516
0.584313
0.584113
0.583917
0.583722
0.583531
0.583342
0.583156
0.582973
0.582792
0.582614
0.582438
0.582265
0.582094
0.581925
0.581759
0.581596
0.581434
0.581275
0.581118
0.580963
0.580811
0.58066
0.580512
0.580366
0.580222
0.58008
0.57994
0.579802
0.579666
0.579531
0.579399
0.579268
0.57914
0.579013
0.578888
0.578764
0.578643
0.578523
0.578404
0.578288
0.578172
0.578059
0.577947
0.577836
0.577727
0.57762
0.577515
0.736018
0.687924
0.688455
0.689168
0.690062
0.691135
0.692354
0.693669
0.695022
0.696365
0.697657
0.698869
0.699984
0.70099
0.701882
0.702661
0.70333
0.703894
0.704357
0.704728
0.705013
0.70522
0.705354
0.705422
0.705432
0.705387
0.705294
0.705158
0.704983
0.704773
0.704532
0.704264
0.703972
0.703658
0.703325
0.702976
0.702613
0.702237
0.701851
0.701456
0.701053
0.700644
0.700229
0.699811
0.699389
0.698965
0.698539
0.698113
0.697686
0.697259
0.696833
0.696408
0.695984
0.695562
0.695143
0.694726
0.694311
0.693899
0.69349
0.693085
0.692683
0.692284
0.691888
0.691497
0.691109
0.690724
0.690344
0.689967
0.689594
0.689226
0.688861
0.688499
0.688142
0.687789
0.68744
0.687094
0.686753
0.686415
0.686082
0.685752
0.685426
0.685103
0.684785
0.68447
0.684159
0.683852
0.683548
0.683248
0.682952
0.682659
0.68237
0.682084
0.681802
0.681523
0.681248
0.680976
0.680707
0.680442
0.68018
0.679921
0.679665
0.679413
0.679164
0.678917
0.678674
0.678434
0.678197
0.677963
0.677732
0.677504
0.677278
0.677056
0.676836
0.676619
0.676405
0.676193
0.675985
0.675779
0.675575
0.675374
0.675176
0.67498
0.674787
0.674596
0.674408
0.674222
0.674039
0.673858
0.673679
0.673502
0.673328
0.673156
0.672987
0.672819
0.672654
0.672491
0.672329
0.67217
0.672013
0.671858
0.671705
0.671554
0.671405
0.671258
0.671112
0.670969
0.670827
0.670687
0.670549
0.670413
0.840155
0.787191
0.787673
0.788311
0.789096
0.790041
0.791143
0.79238
0.793712
0.795097
0.796494
0.797868
0.799193
0.800448
0.801619
0.802699
0.803681
0.804566
0.805353
0.806046
0.806648
0.807164
0.807598
0.807956
0.808243
0.808463
0.808623
0.808725
0.808776
0.80878
0.808739
0.808659
0.808542
0.808393
0.808213
0.808006
0.807775
0.807521
0.807248
0.806956
0.806648
0.806326
0.80599
0.805644
0.805287
0.804921
0.804548
0.804167
0.803781
0.80339
0.802994
0.802595
0.802193
0.801789
0.801383
0.800975
0.800567
0.800158
0.799749
0.799341
0.798933
0.798525
0.798119
0.797714
0.797311
0.79691
0.79651
0.796112
0.795717
0.795324
0.794933
0.794545
0.79416
0.793777
0.793397
0.79302
0.792646
0.792275
0.791907
0.791542
0.79118
0.790821
0.790465
0.790113
0.789764
0.789418
0.789075
0.788735
0.788399
0.788066
0.787736
0.787409
0.787086
0.786766
0.786449
0.786135
0.785825
0.785517
0.785213
0.784912
0.784614
0.78432
0.784028
0.78374
0.783454
0.783172
0.782893
0.782617
0.782344
0.782074
0.781806
0.781542
0.781281
0.781022
0.780767
0.780514
0.780265
0.780018
0.779773
0.779532
0.779293
0.779058
0.778824
0.778594
0.778366
0.778141
0.777918
0.777698
0.777481
0.777266
0.777053
0.776843
0.776636
0.776431
0.776228
0.776028
0.77583
0.775635
0.775441
0.77525
0.775061
0.774875
0.77469
0.774508
0.774328
0.774149
0.773973
0.773799
0.773627
0.773458
0.954697
0.89638
0.896817
0.897394
0.898087
0.898907
0.899868
0.90097
0.902195
0.903517
0.904903
0.906321
0.907743
0.909142
0.910499
0.911798
0.913029
0.914183
0.915256
0.916246
0.917151
0.917972
0.918712
0.919373
0.919958
0.92047
0.920913
0.921292
0.921609
0.921869
0.922074
0.92223
0.922339
0.922404
0.922429
0.922416
0.922368
0.922289
0.922179
0.922043
0.921881
0.921696
0.92149
0.921264
0.92102
0.92076
0.920484
0.920196
0.919894
0.919581
0.919258
0.918926
0.918585
0.918236
0.917881
0.917519
0.917153
0.916781
0.916405
0.916025
0.915643
0.915257
0.914869
0.914479
0.914088
0.913695
0.913302
0.912908
0.912514
0.912119
0.911725
0.911331
0.910938
0.910545
0.910154
0.909763
0.909374
0.908986
0.9086
0.908215
0.907833
0.907452
0.907073
0.906696
0.906321
0.905949
0.905578
0.90521
0.904845
0.904482
0.904121
0.903763
0.903408
0.903055
0.902704
0.902357
0.902012
0.90167
0.901331
0.900994
0.90066
0.900329
0.900001
0.899676
0.899353
0.899033
0.898716
0.898402
0.898091
0.897783
0.897477
0.897174
0.896874
0.896577
0.896283
0.895992
0.895703
0.895417
0.895134
0.894853
0.894576
0.894301
0.894029
0.893759
0.893493
0.893229
0.892967
0.892709
0.892453
0.892199
0.891949
0.8917
0.891455
0.891212
0.890971
0.890733
0.890498
0.890265
0.890034
0.889806
0.88958
0.889357
0.889136
0.888917
0.8887
0.888486
0.888274
0.888063
0.887856
0.887651
1.08069
1.01649
1.01688
1.01741
1.01803
1.01875
1.01958
1.02053
1.02161
1.0228
1.02408
1.02544
1.02685
1.02828
1.02972
1.03114
1.03252
1.03387
1.03515
1.03638
1.03754
1.03863
1.03965
1.04059
1.04146
1.04227
1.043
1.04367
1.04427
1.04481
1.04528
1.04571
1.04607
1.04639
1.04666
1.04688
1.04706
1.0472
1.0473
1.04737
1.0474
1.0474
1.04737
1.04731
1.04723
1.04712
1.04699
1.04684
1.04667
1.04648
1.04627
1.04605
1.04581
1.04556
1.0453
1.04503
1.04474
1.04445
1.04414
1.04383
1.04351
1.04318
1.04284
1.0425
1.04216
1.04181
1.04145
1.04109
1.04073
1.04036
1.03999
1.03962
1.03924
1.03887
1.03849
1.03811
1.03773
1.03735
1.03696
1.03658
1.0362
1.03582
1.03543
1.03505
1.03467
1.03429
1.03391
1.03353
1.03315
1.03277
1.0324
1.03202
1.03165
1.03128
1.03091
1.03054
1.03017
1.02981
1.02945
1.02908
1.02873
1.02837
1.02801
1.02766
1.02731
1.02696
1.02662
1.02627
1.02593
1.02559
1.02526
1.02492
1.02459
1.02426
1.02393
1.02361
1.02329
1.02297
1.02265
1.02234
1.02202
1.02171
1.02141
1.0211
1.0208
1.0205
1.02021
1.01991
1.01962
1.01933
1.01904
1.01876
1.01848
1.0182
1.01792
1.01765
1.01738
1.01711
1.01684
1.01658
1.01632
1.01606
1.0158
1.01555
1.01529
1.01504
1.01479
1.01455
1.01431
1.01407
1.21926
1.14859
1.14895
1.14944
1.15
1.15064
1.15137
1.15218
1.15311
1.15414
1.15528
1.15651
1.15782
1.15919
1.1606
1.16203
1.16347
1.1649
1.16631
1.16769
1.16903
1.17032
1.17156
1.17274
1.17386
1.17492
1.17592
1.17685
1.17773
1.17854
1.1793
1.17999
1.18063
1.18122
1.18175
1.18223
1.18267
1.18306
1.1834
1.1837
1.18396
1.18418
1.18437
1.18452
1.18464
1.18473
1.18478
1.18481
1.18482
1.1848
1.18475
1.18468
1.18459
1.18448
1.18436
1.18421
1.18405
1.18387
1.18368
1.18347
1.18325
1.18302
1.18278
1.18253
1.18226
1.18199
1.18171
1.18142
1.18112
1.18081
1.1805
1.18018
1.17986
1.17953
1.1792
1.17886
1.17852
1.17817
1.17782
1.17747
1.17711
1.17675
1.17639
1.17603
1.17566
1.1753
1.17493
1.17456
1.17419
1.17382
1.17345
1.17308
1.17271
1.17234
1.17197
1.1716
1.17122
1.17085
1.17048
1.17011
1.16975
1.16938
1.16901
1.16865
1.16828
1.16792
1.16756
1.1672
1.16684
1.16648
1.16613
1.16577
1.16542
1.16507
1.16472
1.16437
1.16403
1.16368
1.16334
1.163
1.16266
1.16233
1.16199
1.16166
1.16133
1.16101
1.16068
1.16036
1.16004
1.15972
1.1594
1.15909
1.15878
1.15847
1.15816
1.15786
1.15755
1.15725
1.15695
1.15666
1.15636
1.15607
1.15578
1.1555
1.15521
1.15493
1.15465
1.15437
1.15409
1.15382
1.37167
1.29391
1.29422
1.29467
1.29519
1.29578
1.29642
1.29713
1.29793
1.29881
1.29979
1.30086
1.30202
1.30326
1.30457
1.30592
1.30732
1.30874
1.31018
1.31161
1.31303
1.31444
1.31581
1.31715
1.31845
1.31971
1.32092
1.32209
1.3232
1.32426
1.32526
1.32621
1.32711
1.32796
1.32876
1.3295
1.3302
1.33085
1.33145
1.332
1.33251
1.33298
1.33341
1.3338
1.33415
1.33446
1.33474
1.33498
1.3352
1.33538
1.33553
1.33565
1.33575
1.33582
1.33587
1.33589
1.33589
1.33588
1.33583
1.33578
1.3357
1.3356
1.33549
1.33536
1.33522
1.33506
1.33489
1.33471
1.33451
1.33431
1.33409
1.33386
1.33363
1.33338
1.33312
1.33286
1.33259
1.33231
1.33202
1.33173
1.33143
1.33113
1.33082
1.33051
1.33019
1.32987
1.32954
1.32921
1.32888
1.32854
1.3282
1.32786
1.32752
1.32717
1.32682
1.32647
1.32612
1.32576
1.32541
1.32505
1.3247
1.32434
1.32398
1.32362
1.32326
1.3229
1.32254
1.32219
1.32183
1.32147
1.32111
1.32075
1.32039
1.32004
1.31968
1.31933
1.31897
1.31862
1.31827
1.31791
1.31756
1.31721
1.31687
1.31652
1.31618
1.31583
1.31549
1.31515
1.31481
1.31447
1.31414
1.3138
1.31347
1.31314
1.31281
1.31248
1.31216
1.31183
1.31151
1.31119
1.31087
1.31055
1.31024
1.30993
1.30962
1.30931
1.309
1.30869
1.30839
1.30809
1.53931
1.45373
1.45401
1.45442
1.45491
1.45545
1.45604
1.45668
1.45737
1.45813
1.45896
1.45988
1.46087
1.46195
1.46311
1.46433
1.46562
1.46695
1.46832
1.46972
1.47113
1.47256
1.47398
1.47539
1.47679
1.47817
1.47952
1.48084
1.48212
1.48337
1.48458
1.48574
1.48686
1.48794
1.48897
1.48995
1.49089
1.49179
1.49264
1.49344
1.4942
1.49492
1.4956
1.49623
1.49683
1.49738
1.4979
1.49838
1.49883
1.49924
1.49961
1.49996
1.50027
1.50055
1.5008
1.50103
1.50123
1.5014
1.50154
1.50167
1.50177
1.50184
1.5019
1.50193
1.50195
1.50194
1.50192
1.50188
1.50183
1.50176
1.50167
1.50157
1.50145
1.50133
1.50119
1.50103
1.50087
1.50069
1.50051
1.50031
1.5001
1.49989
1.49967
1.49943
1.4992
1.49895
1.49869
1.49843
1.49817
1.49789
1.49762
1.49733
1.49704
1.49675
1.49645
1.49615
1.49584
1.49553
1.49522
1.4949
1.49459
1.49426
1.49394
1.49361
1.49328
1.49295
1.49262
1.49228
1.49194
1.49161
1.49127
1.49093
1.49058
1.49024
1.4899
1.48955
1.48921
1.48887
1.48852
1.48818
1.48783
1.48748
1.48714
1.48679
1.48645
1.48611
1.48576
1.48542
1.48507
1.48473
1.48439
1.48405
1.48371
1.48337
1.48303
1.4827
1.48236
1.48203
1.48169
1.48136
1.48103
1.4807
1.48037
1.48004
1.47971
1.47939
1.47906
1.47874
1.47842
1.4781
1.72369
1.62953
1.62977
1.63014
1.63059
1.6311
1.63165
1.63224
1.63286
1.63352
1.63424
1.63503
1.63588
1.6368
1.63779
1.63885
1.63998
1.64117
1.64242
1.64371
1.64504
1.6464
1.64778
1.64918
1.65059
1.652
1.6534
1.6548
1.65618
1.65754
1.65887
1.66018
1.66147
1.66271
1.66393
1.66511
1.66625
1.66736
1.66842
1.66945
1.67044
1.67139
1.6723
1.67317
1.674
1.67479
1.67555
1.67627
1.67695
1.67759
1.6782
1.67878
1.67932
1.67983
1.68031
1.68075
1.68117
1.68156
1.68191
1.68224
1.68255
1.68282
1.68308
1.6833
1.68351
1.68369
1.68385
1.68398
1.6841
1.6842
1.68427
1.68433
1.68438
1.6844
1.68441
1.6844
1.68438
1.68434
1.68428
1.68422
1.68414
1.68405
1.68394
1.68383
1.6837
1.68356
1.68342
1.68326
1.68309
1.68291
1.68273
1.68254
1.68234
1.68213
1.68191
1.68169
1.68146
1.68122
1.68098
1.68073
1.68048
1.68022
1.67996
1.67969
1.67942
1.67914
1.67886
1.67858
1.67829
1.678
1.6777
1.6774
1.6771
1.6768
1.67649
1.67618
1.67587
1.67556
1.67524
1.67493
1.67461
1.67429
1.67397
1.67365
1.67332
1.673
1.67267
1.67235
1.67202
1.67169
1.67136
1.67103
1.6707
1.67038
1.67005
1.66972
1.66939
1.66906
1.66873
1.6684
1.66807
1.66774
1.66741
1.66708
1.66675
1.66643
1.6661
1.66577
1.66544
1.66512
1.92647
1.82288
1.82309
1.82342
1.82384
1.82432
1.82484
1.82538
1.82596
1.82656
1.8272
1.82789
1.82862
1.8294
1.83025
1.83115
1.83212
1.83315
1.83423
1.83538
1.83657
1.83781
1.83909
1.8404
1.84174
1.8431
1.84447
1.84586
1.84725
1.84864
1.85003
1.8514
1.85277
1.85412
1.85545
1.85676
1.85804
1.8593
1.86053
1.86173
1.8629
1.86404
1.86514
1.86622
1.86725
1.86826
1.86923
1.87017
1.87107
1.87194
1.87277
1.87357
1.87434
1.87508
1.87578
1.87645
1.87709
1.8777
1.87828
1.87883
1.87935
1.87984
1.88031
1.88074
1.88116
1.88154
1.8819
1.88224
1.88255
1.88284
1.88311
1.88336
1.88358
1.88379
1.88397
1.88414
1.88428
1.88441
1.88453
1.88462
1.8847
1.88476
1.88481
1.88484
1.88486
1.88486
1.88485
1.88483
1.88479
1.88475
1.88469
1.88462
1.88454
1.88444
1.88434
1.88423
1.88411
1.88398
1.88384
1.88369
1.88354
1.88337
1.8832
1.88302
1.88284
1.88265
1.88245
1.88224
1.88203
1.88182
1.88159
1.88137
1.88113
1.8809
1.88066
1.88041
1.88016
1.8799
1.87965
1.87938
1.87912
1.87885
1.87858
1.8783
1.87802
1.87774
1.87746
1.87717
1.87689
1.8766
1.8763
1.87601
1.87571
1.87541
1.87511
1.87481
1.87451
1.87421
1.8739
1.8736
1.87329
1.87298
1.87267
1.87236
1.87205
1.87174
1.87143
1.87111
1.8708
1.87049
2.1495
2.03555
2.03572
2.03601
2.0364
2.03684
2.03733
2.03785
2.0384
2.03896
2.03955
2.04016
2.04081
2.04149
2.04222
2.04299
2.04381
2.04469
2.04562
2.0466
2.04763
2.04872
2.04985
2.05102
2.05224
2.05348
2.05476
2.05607
2.0574
2.05874
2.0601
2.06146
2.06283
2.0642
2.06557
2.06693
2.06828
2.06962
2.07094
2.07225
2.07354
2.07481
2.07605
2.07727
2.07847
2.07964
2.08078
2.0819
2.08298
2.08404
2.08507
2.08607
2.08704
2.08798
2.08889
2.08977
2.09062
2.09144
2.09223
2.093
2.09373
2.09444
2.09512
2.09577
2.09639
2.09699
2.09756
2.09811
2.09863
2.09913
2.0996
2.10005
2.10048
2.10088
2.10126
2.10162
2.10196
2.10228
2.10258
2.10285
2.10311
2.10336
2.10358
2.10379
2.10397
2.10415
2.1043
2.10444
2.10457
2.10468
2.10477
2.10486
2.10492
2.10498
2.10502
2.10505
2.10507
2.10507
2.10507
2.10505
2.10502
2.10498
2.10493
2.10488
2.10481
2.10473
2.10464
2.10455
2.10445
2.10434
2.10422
2.10409
2.10396
2.10381
2.10367
2.10351
2.10335
2.10318
2.10301
2.10283
2.10265
2.10246
2.10226
2.10206
2.10186
2.10165
2.10143
2.10121
2.10099
2.10076
2.10053
2.1003
2.10006
2.09982
2.09957
2.09932
2.09907
2.09882
2.09856
2.0983
2.09804
2.09778
2.09751
2.09724
2.09697
2.09669
2.09642
2.09614
2.09586
2.09558
2.39479
2.26944
2.26958
2.26984
2.27019
2.2706
2.27106
2.27156
2.27208
2.27262
2.27317
2.27374
2.27433
2.27495
2.27559
2.27626
2.27697
2.27772
2.27851
2.27935
2.28023
2.28115
2.28213
2.28315
2.28421
2.28531
2.28645
2.28762
2.28883
2.29007