/*--------------------------------*- C++ -*----------------------------------*\
| =========                 |                                                 |
| \\      /  F ield         | OpenFOAM: The Open Source CFD Toolbox           |
|  \\    /   O peration     | Version:  5.x                                   |
|   \\  /    A nd           | Web:      www.OpenFOAM.org                      |
|    \\/     M anipulation  |                                                 |
\*---------------------------------------------------------------------------*/
FoamFile
{
    version     2.0;
    format      ascii;
    class       volScalarField;
    location    "0";
    object      epsilon;
}
// * * * * * * * * * * * * * * * * * * * * * * * * * * * * * * * * * * * * * //

dimensions      [0 2 -3 0 0 0 0];

internalField   nonuniform List<scalar> 
86400
(
8.81353
21.6823
21.5672
21.5476
21.5572
21.5777
21.602
21.6275
21.6528
21.6774
21.7011
21.7237
21.7454
21.7659
21.7855
21.8042
21.822
21.839
21.8551
21.8706
21.8854
21.8995
21.913
21.926
21.9385
21.9504
21.962
21.9731
21.9838
21.9941
22.004
22.0137
22.023
22.032
22.0407
22.0492
22.0574
22.0654
22.0732
22.0807
22.0881
22.0953
22.1022
22.109
22.1157
22.1222
22.1285
22.1347
22.1407
22.1466
22.1524
22.158
22.1636
22.169
22.1743
22.1795
22.1846
22.1896
22.1944
22.1992
22.2039
22.2085
22.2131
22.2175
22.2218
22.2261
22.2303
22.2344
22.2384
22.2424
22.2463
22.2501
22.2538
22.2575
22.2611
22.2646
22.2681
22.2715
22.2748
22.2781
22.2813
22.2845
22.2876
22.2906
22.2936
22.2965
22.2994
22.3022
22.305
22.3077
22.3104
22.313
22.3156
22.3181
22.3205
22.323
22.3253
22.3277
22.3299
22.3322
22.3344
22.3365
22.3386
22.3407
22.3427
22.3446
22.3466
22.3484
22.3503
22.3521
22.3539
22.3556
22.3573
22.3589
22.3605
22.3621
22.3636
22.3651
22.3665
22.3679
22.3693
22.3706
22.3719
22.3731
22.3743
22.3755
22.3766
22.3777
22.3788
22.3798
22.3808
22.3817
22.3826
22.3834
22.3842
22.385
22.3857
22.3864
22.387
22.3875
22.388
22.3885
22.3888
22.3892
22.3894
22.3896
22.3897
22.3897
22.3898
22.39
3.41795
4.93454
4.90603
4.90338
4.90978
4.91904
4.92895
4.9387
4.94801
4.95677
4.96497
4.97265
4.97984
4.98658
4.9929
4.99884
5.00444
5.00972
5.01471
5.01943
5.02391
5.02816
5.0322
5.03605
5.03972
5.04323
5.04658
5.0498
5.05287
5.05583
5.05866
5.06139
5.06402
5.06655
5.069
5.07136
5.07364
5.07585
5.07799
5.08006
5.08207
5.08402
5.08591
5.08775
5.08954
5.09129
5.09298
5.09464
5.09625
5.09782
5.09935
5.10085
5.10231
5.10374
5.10513
5.10649
5.10783
5.10913
5.11041
5.11166
5.11288
5.11408
5.11525
5.1164
5.11752
5.11862
5.1197
5.12076
5.1218
5.12281
5.12381
5.12479
5.12575
5.12669
5.12761
5.12851
5.1294
5.13027
5.13112
5.13196
5.13278
5.13358
5.13437
5.13515
5.13591
5.13665
5.13738
5.1381
5.1388
5.13949
5.14017
5.14083
5.14148
5.14212
5.14275
5.14336
5.14396
5.14455
5.14513
5.1457
5.14625
5.14679
5.14733
5.14785
5.14836
5.14886
5.14935
5.14983
5.1503
5.15076
5.15121
5.15164
5.15207
5.15249
5.1529
5.1533
5.15369
5.15407
5.15444
5.1548
5.15515
5.1555
5.15583
5.15615
5.15647
5.15677
5.15706
5.15735
5.15763
5.15789
5.15815
5.1584
5.15864
5.15886
5.15908
5.15929
5.15949
5.15967
5.15985
5.16001
5.16017
5.1603
5.16043
5.16054
5.16064
5.16072
5.16078
5.16083
5.16088
5.16093
2.06557
2.52051
2.48043
2.46187
2.45458
2.45277
2.45369
2.45598
2.45897
2.46228
2.46572
2.46917
2.47257
2.47588
2.47907
2.48215
2.4851
2.48794
2.49065
2.49324
2.49572
2.4981
2.50037
2.50255
2.50463
2.50663
2.50855
2.51039
2.51216
2.51387
2.5155
2.51708
2.5186
2.52007
2.52148
2.52285
2.52417
2.52545
2.52669
2.52788
2.52905
2.53017
2.53127
2.53233
2.53336
2.53436
2.53534
2.53629
2.53722
2.53812
2.539
2.53986
2.54069
2.54151
2.54231
2.54308
2.54384
2.54459
2.54531
2.54602
2.54672
2.5474
2.54806
2.54871
2.54935
2.54997
2.55058
2.55118
2.55177
2.55234
2.55291
2.55346
2.554
2.55453
2.55505
2.55555
2.55605
2.55654
2.55702
2.55749
2.55795
2.55841
2.55885
2.55929
2.55971
2.56013
2.56054
2.56095
2.56134
2.56173
2.56211
2.56248
2.56285
2.56321
2.56356
2.5639
2.56424
2.56458
2.5649
2.56522
2.56553
2.56584
2.56614
2.56644
2.56673
2.56701
2.56729
2.56756
2.56782
2.56808
2.56834
2.56859
2.56883
2.56907
2.56931
2.56954
2.56976
2.56998
2.57019
2.5704
2.5706
2.5708
2.571
2.57119
2.57137
2.57155
2.57172
2.57189
2.57206
2.57222
2.57237
2.57252
2.57267
2.57281
2.57294
2.57307
2.5732
2.57332
2.57343
2.57354
2.57365
2.57375
2.57384
2.57392
2.574
2.57408
2.57414
2.5742
2.57425
2.57429
1.45113
1.6645
1.62577
1.60161
1.58746
1.57931
1.57475
1.57238
1.57139
1.57129
1.57176
1.57262
1.57373
1.575
1.57638
1.57781
1.57928
1.58075
1.58222
1.58367
1.5851
1.5865
1.58787
1.5892
1.59049
1.59175
1.59298
1.59416
1.59532
1.59643
1.59751
1.59856
1.59958
1.60057
1.60153
1.60246
1.60336
1.60423
1.60508
1.60591
1.60671
1.60749
1.60825
1.60899
1.60971
1.61042
1.6111
1.61176
1.61241
1.61305
1.61366
1.61427
1.61486
1.61543
1.61599
1.61654
1.61708
1.6176
1.61812
1.61862
1.61911
1.61959
1.62006
1.62052
1.62097
1.62141
1.62185
1.62227
1.62269
1.62309
1.62349
1.62388
1.62427
1.62464
1.62501
1.62537
1.62573
1.62607
1.62641
1.62675
1.62708
1.6274
1.62771
1.62802
1.62833
1.62863
1.62892
1.62921
1.62949
1.62977
1.63004
1.6303
1.63057
1.63082
1.63107
1.63132
1.63156
1.6318
1.63204
1.63226
1.63249
1.63271
1.63293
1.63314
1.63335
1.63355
1.63375
1.63395
1.63414
1.63433
1.63452
1.6347
1.63488
1.63505
1.63522
1.63539
1.63555
1.63571
1.63587
1.63602
1.63617
1.63632
1.63647
1.63661
1.63674
1.63688
1.63701
1.63714
1.63726
1.63738
1.6375
1.63762
1.63773
1.63784
1.63794
1.63805
1.63815
1.63824
1.63834
1.63843
1.63851
1.6386
1.63868
1.63875
1.63883
1.6389
1.63896
1.63902
1.63907
1.63911
1.0955
1.22614
1.19653
1.17375
1.15786
1.14698
1.13954
1.13444
1.13096
1.12861
1.12708
1.12614
1.12564
1.12546
1.12552
1.12576
1.12614
1.12663
1.12719
1.12781
1.12847
1.12916
1.12987
1.13059
1.13131
1.13204
1.13277
1.13349
1.1342
1.13491
1.1356
1.13628
1.13696
1.13761
1.13826
1.13889
1.13951
1.14012
1.14071
1.14129
1.14186
1.14241
1.14295
1.14348
1.144
1.14451
1.14501
1.14549
1.14597
1.14644
1.14689
1.14734
1.14777
1.1482
1.14862
1.14903
1.14943
1.14982
1.15021
1.15059
1.15096
1.15132
1.15168
1.15202
1.15237
1.1527
1.15303
1.15335
1.15367
1.15398
1.15429
1.15458
1.15488
1.15517
1.15545
1.15573
1.156
1.15627
1.15653
1.15679
1.15704
1.15729
1.15753
1.15777
1.15801
1.15824
1.15846
1.15869
1.15891
1.15912
1.15933
1.15954
1.15975
1.15995
1.16014
1.16034
1.16053
1.16071
1.1609
1.16108
1.16125
1.16143
1.1616
1.16176
1.16193
1.16209
1.16225
1.16241
1.16256
1.16271
1.16286
1.163
1.16314
1.16328
1.16342
1.16355
1.16369
1.16382
1.16394
1.16407
1.16419
1.16431
1.16442
1.16454
1.16465
1.16476
1.16487
1.16497
1.16508
1.16518
1.16528
1.16537
1.16547
1.16556
1.16565
1.16574
1.16582
1.1659
1.16598
1.16606
1.16614
1.16621
1.16629
1.16636
1.16642
1.16649
1.16655
1.16661
1.16666
1.16671
0.863051
0.954895
0.935402
0.917236
0.902679
0.891549
0.883138
0.876779
0.871954
0.868282
0.865482
0.863352
0.86174
0.860534
0.859648
0.859017
0.858589
0.858325
0.858193
0.858169
0.858231
0.858365
0.858555
0.858793
0.859067
0.859372
0.859701
0.860049
0.860412
0.860786
0.861168
0.861556
0.861948
0.862342
0.862736
0.863131
0.863523
0.863914
0.864302
0.864686
0.865066
0.865442
0.865814
0.86618
0.866542
0.866899
0.86725
0.867596
0.867937
0.868273
0.868604
0.868929
0.869249
0.869563
0.869873
0.870177
0.870477
0.870771
0.871061
0.871346
0.871625
0.871901
0.872171
0.872437
0.872699
0.872956
0.873209
0.873458
0.873702
0.873942
0.874179
0.874411
0.87464
0.874864
0.875085
0.875302
0.875516
0.875726
0.875933
0.876136
0.876336
0.876532
0.876726
0.876916
0.877103
0.877287
0.877468
0.877646
0.877821
0.877993
0.878162
0.878329
0.878493
0.878654
0.878812
0.878968
0.879122
0.879273
0.879421
0.879567
0.879711
0.879852
0.879991
0.880128
0.880262
0.880394
0.880524
0.880652
0.880778
0.880902
0.881023
0.881143
0.88126
0.881376
0.881489
0.881601
0.881711
0.881818
0.881924
0.882028
0.88213
0.88223
0.882329
0.882426
0.88252
0.882614
0.882705
0.882795
0.882882
0.882969
0.883053
0.883136
0.883217
0.883297
0.883374
0.883451
0.883525
0.883598
0.88367
0.88374
0.883808
0.883875
0.88394
0.884004
0.884066
0.884126
0.884185
0.884241
0.884293
0.884338
0.699672
0.768477
0.756973
0.744105
0.73236
0.72246
0.714366
0.707817
0.702528
0.698249
0.694779
0.691957
0.689658
0.687782
0.686254
0.68501
0.684001
0.683188
0.682539
0.682026
0.681629
0.681329
0.681112
0.680965
0.680877
0.68084
0.680846
0.680888
0.680962
0.681063
0.681186
0.681328
0.681487
0.68166
0.681844
0.682037
0.682239
0.682448
0.682661
0.68288
0.683101
0.683325
0.683551
0.683778
0.684006
0.684234
0.684463
0.68469
0.684917
0.685143
0.685367
0.68559
0.685812
0.686031
0.686249
0.686464
0.686678
0.686889
0.687098
0.687305
0.687509
0.687712
0.687911
0.688108
0.688303
0.688495
0.688685
0.688872
0.689057
0.689239
0.689419
0.689597
0.689772
0.689945
0.690115
0.690283
0.690449
0.690612
0.690773
0.690932
0.691088
0.691242
0.691395
0.691544
0.691692
0.691838
0.691981
0.692123
0.692262
0.6924
0.692535
0.692669
0.692801
0.69293
0.693058
0.693184
0.693308
0.69343
0.693551
0.69367
0.693787
0.693902
0.694016
0.694128
0.694238
0.694347
0.694454
0.694559
0.694663
0.694765
0.694866
0.694965
0.695063
0.695159
0.695254
0.695348
0.695439
0.69553
0.695619
0.695706
0.695793
0.695878
0.695961
0.696043
0.696124
0.696203
0.696281
0.696358
0.696434
0.696508
0.696581
0.696652
0.696723
0.696792
0.69686
0.696927
0.696992
0.697056
0.697119
0.697181
0.697242
0.697302
0.69736
0.697418
0.697474
0.697529
0.697582
0.697634
0.697683
0.697726
0.579049
0.632209
0.625994
0.617721
0.609137
0.601177
0.59417
0.588146
0.583024
0.578684
0.57501
0.571898
0.569256
0.56701
0.565097
0.563466
0.562075
0.560887
0.559874
0.55901
0.558275
0.557651
0.557124
0.55668
0.556309
0.556002
0.55575
0.555546
0.555386
0.555263
0.555172
0.555111
0.555075
0.555062
0.555069
0.555092
0.555132
0.555185
0.55525
0.555325
0.55541
0.555502
0.555602
0.555708
0.55582
0.555936
0.556056
0.55618
0.556307
0.556437
0.556568
0.556702
0.556836
0.556972
0.557109
0.557247
0.557385
0.557523
0.557661
0.557799
0.557937
0.558075
0.558212
0.558348
0.558484
0.558619
0.558753
0.558887
0.559019
0.559151
0.559281
0.55941
0.559538
0.559666
0.559791
0.559916
0.56004
0.560162
0.560283
0.560403
0.560521
0.560639
0.560755
0.560869
0.560983
0.561095
0.561206
0.561316
0.561424
0.561531
0.561637
0.561742
0.561845
0.561947
0.562048
0.562148
0.562247
0.562344
0.56244
0.562535
0.562629
0.562722
0.562813
0.562903
0.562993
0.563081
0.563168
0.563253
0.563338
0.563422
0.563504
0.563586
0.563666
0.563746
0.563824
0.563901
0.563977
0.564052
0.564127
0.5642
0.564272
0.564343
0.564413
0.564482
0.56455
0.564618
0.564684
0.564749
0.564813
0.564877
0.564939
0.565
0.565061
0.56512
0.565179
0.565237
0.565293
0.565349
0.565404
0.565459
0.565512
0.565564
0.565616
0.565667
0.565717
0.565766
0.565814
0.565861
0.565905
0.565945
0.486737
0.52863
0.525494
0.520606
0.51485
0.508974
0.5034
0.498315
0.493771
0.489755
0.486227
0.483134
0.480426
0.478053
0.475973
0.474147
0.472543
0.471133
0.469891
0.468798
0.467834
0.466985
0.466236
0.465576
0.464995
0.464484
0.464034
0.463641
0.463296
0.462995
0.462734
0.462508
0.462314
0.462148
0.462008
0.461891
0.461794
0.461716
0.461655
0.461609
0.461576
0.461557
0.461548
0.461549
0.46156
0.461579
0.461605
0.461638
0.461677
0.461722
0.461772
0.461826
0.461884
0.461946
0.462011
0.462079
0.462149
0.462222
0.462297
0.462374
0.462452
0.462532
0.462613
0.462695
0.462778
0.462862
0.462946
0.463031
0.463116
0.463201
0.463287
0.463373
0.463458
0.463544
0.46363
0.463716
0.463801
0.463886
0.463971
0.464055
0.46414
0.464223
0.464306
0.464389
0.464472
0.464553
0.464635
0.464715
0.464796
0.464875
0.464954
0.465033
0.46511
0.465187
0.465264
0.46534
0.465415
0.465489
0.465563
0.465637
0.465709
0.465781
0.465852
0.465923
0.465992
0.466062
0.46613
0.466198
0.466265
0.466331
0.466397
0.466462
0.466527
0.46659
0.466653
0.466716
0.466777
0.466838
0.466899
0.466958
0.467017
0.467075
0.467133
0.46719
0.467246
0.467302
0.467357
0.467411
0.467464
0.467517
0.46757
0.467621
0.467672
0.467722
0.467772
0.467821
0.467869
0.467917
0.467964
0.46801
0.468056
0.468101
0.468146
0.46819
0.468233
0.468276
0.468318
0.468359
0.468398
0.468433
0.414119
0.447675
0.446165
0.443486
0.439919
0.435906
0.431797
0.427811
0.424067
0.420615
0.417469
0.414622
0.412057
0.409749
0.407676
0.405814
0.404141
0.402638
0.401286
0.400069
0.398974
0.397987
0.397098
0.396295
0.395571
0.394917
0.394327
0.393794
0.393313
0.392879
0.392487
0.392134
0.391816
0.39153
0.391272
0.391041
0.390834
0.390649
0.390484
0.390338
0.390208
0.390093
0.389993
0.389906
0.38983
0.389766
0.389711
0.389666
0.38963
0.389601
0.389579
0.389564
0.389555
0.389551
0.389553
0.389559
0.38957
0.389585
0.389604
0.389626
0.389651
0.389679
0.389709
0.389742
0.389777
0.389815
0.389854
0.389895
0.389937
0.389981
0.390026
0.390072
0.390119
0.390167
0.390216
0.390266
0.390317
0.390368
0.390419
0.390472
0.390524
0.390577
0.39063
0.390684
0.390737
0.390791
0.390845
0.390899
0.390953
0.391007
0.391061
0.391115
0.391169
0.391223
0.391276
0.39133
0.391383
0.391437
0.39149
0.391543
0.391595
0.391648
0.3917
0.391752
0.391804
0.391855
0.391906
0.391957
0.392007
0.392058
0.392107
0.392157
0.392206
0.392255
0.392304
0.392352
0.3924
0.392447
0.392494
0.392541
0.392587
0.392633
0.392679
0.392724
0.392768
0.392813
0.392857
0.3929
0.392943
0.392986
0.393028
0.39307
0.393112
0.393153
0.393194
0.393234
0.393273
0.393313
0.393352
0.39339
0.393428
0.393466
0.393503
0.39354
0.393577
0.393613
0.393649
0.393684
0.393717
0.393747
0.35574
0.383016
0.382308
0.380928
0.378874
0.376328
0.37351
0.370597
0.367712
0.364935
0.362307
0.359851
0.357572
0.35547
0.353537
0.351763
0.350138
0.348649
0.347286
0.346039
0.344896
0.343849
0.34289
0.342011
0.341205
0.340465
0.339786
0.339162
0.33859
0.338063
0.337579
0.337134
0.336725
0.336349
0.336003
0.335685
0.335393
0.335124
0.334877
0.33465
0.334442
0.334251
0.334076
0.333916
0.33377
0.333636
0.333514
0.333403
0.333302
0.33321
0.333128
0.333053
0.332986
0.332927
0.332873
0.332826
0.332785
0.332749
0.332718
0.332692
0.33267
0.332652
0.332638
0.332628
0.33262
0.332616
0.332615
0.332616
0.33262
0.332626
0.332635
0.332645
0.332657
0.332671
0.332687
0.332704
0.332723
0.332743
0.332764
0.332787
0.33281
0.332835
0.33286
0.332887
0.332914
0.332942
0.33297
0.333
0.333029
0.33306
0.333091
0.333122
0.333154
0.333186
0.333218
0.333251
0.333284
0.333318
0.333351
0.333385
0.333419
0.333453
0.333487
0.333522
0.333556
0.333591
0.333625
0.33366
0.333695
0.33373
0.333764
0.333799
0.333834
0.333869
0.333903
0.333938
0.333972
0.334007
0.334041
0.334075
0.334109
0.334143
0.334177
0.334211
0.334245
0.334278
0.334311
0.334344
0.334377
0.33441
0.334443
0.334475
0.334507
0.334539
0.334571
0.334602
0.334633
0.334664
0.334695
0.334726
0.334756
0.334786
0.334816
0.334846
0.334876
0.334905
0.334934
0.334962
0.33499
0.335014
0.307985
0.330455
0.33012
0.329442
0.328336
0.326831
0.325029
0.323039
0.320959
0.318861
0.316797
0.314801
0.312894
0.311087
0.309386
0.307791
0.306301
0.304911
0.303617
0.302413
0.301294
0.300254
0.299287
0.298389
0.297555
0.296779
0.296058
0.295387
0.294763
0.294183
0.293642
0.293139
0.292671
0.292234
0.291827
0.291448
0.291094
0.290764
0.290457
0.29017
0.289902
0.289653
0.28942
0.289202
0.289
0.288811
0.288634
0.28847
0.288317
0.288174
0.288041
0.287917
0.287802
0.287695
0.287596
0.287504
0.287418
0.287339
0.287266
0.287198
0.287135
0.287078
0.287025
0.286976
0.286932
0.286891
0.286855
0.286821
0.286791
0.286764
0.28674
0.286718
0.286699
0.286683
0.286669
0.286657
0.286647
0.286639
0.286633
0.286628
0.286625
0.286624
0.286624
0.286626
0.286629
0.286633
0.286638
0.286645
0.286652
0.286661
0.28667
0.286681
0.286692
0.286704
0.286717
0.28673
0.286744
0.286759
0.286775
0.286791
0.286807
0.286824
0.286842
0.28686
0.286878
0.286897
0.286916
0.286935
0.286955
0.286975
0.286996
0.287016
0.287037
0.287058
0.28708
0.287101
0.287123
0.287145
0.287167
0.287189
0.287212
0.287234
0.287257
0.287279
0.287302
0.287325
0.287348
0.287371
0.287393
0.287416
0.287439
0.287462
0.287485
0.287508
0.287531
0.287554
0.287577
0.287599
0.287622
0.287645
0.287667
0.28769
0.287712
0.287735
0.287757
0.28778
0.287802
0.287824
0.287845
0.287863
0.26836
0.287097
0.286927
0.286605
0.286041
0.285209
0.284133
0.282863
0.281457
0.279969
0.278444
0.276915
0.275407
0.273938
0.27252
0.271161
0.269865
0.268634
0.267467
0.266365
0.265325
0.264345
0.263422
0.262554
0.261738
0.26097
0.260248
0.259569
0.258931
0.258331
0.257767
0.257236
0.256737
0.256267
0.255825
0.255409
0.255017
0.254648
0.2543
0.253972
0.253663
0.253372
0.253098
0.252839
0.252595
0.252364
0.252147
0.251942
0.251748
0.251566
0.251393
0.251231
0.251077
0.250932
0.250795
0.250666
0.250545
0.25043
0.250321
0.250219
0.250123
0.250032
0.249946
0.249865
0.249789
0.249718
0.24965
0.249587
0.249527
0.249471
0.249419
0.249369
0.249323
0.24928
0.24924
0.249202
0.249167
0.249134
0.249103
0.249075
0.249049
0.249025
0.249002
0.248982
0.248963
0.248946
0.24893
0.248916
0.248903
0.248892
0.248882
0.248873
0.248866
0.248859
0.248854
0.24885
0.248846
0.248844
0.248843
0.248842
0.248842
0.248844
0.248845
0.248848
0.248851
0.248855
0.24886
0.248865
0.248871
0.248877
0.248884
0.248892
0.2489
0.248908
0.248917
0.248926
0.248936
0.248946
0.248956
0.248967
0.248978
0.248989
0.249001
0.249013
0.249025
0.249038
0.249051
0.249064
0.249077
0.24909
0.249104
0.249118
0.249132
0.249146
0.24916
0.249174
0.249189
0.249203
0.249218
0.249233
0.249248
0.249263
0.249278
0.249293
0.249308
0.249324
0.249339
0.249355
0.249369
0.249382
0.235091
0.250881
0.250783
0.250629
0.250354
0.249921
0.249319
0.248561
0.247671
0.246681
0.245621
0.244517
0.243391
0.242262
0.241142
0.240044
0.238973
0.237936
0.236936
0.235975
0.235054
0.234174
0.233335
0.232535
0.231773
0.231049
0.230361
0.229708
0.229087
0.228498
0.227939
0.227408
0.226904
0.226426
0.225973
0.225542
0.225133
0.224745
0.224376
0.224026
0.223693
0.223377
0.223077
0.222792
0.22252
0.222262
0.222017
0.221783
0.221561
0.22135
0.221149
0.220957
0.220775
0.220602
0.220436
0.220279
0.220129
0.219986
0.21985
0.21972
0.219597
0.219479
0.219367
0.21926
0.219158
0.219061
0.218968
0.21888
0.218796
0.218716
0.21864
0.218567
0.218498
0.218432
0.218369
0.218309
0.218252
0.218198
0.218146
0.218097
0.21805
0.218006
0.217964
0.217924
0.217886
0.21785
0.217816
0.217783
0.217753
0.217724
0.217696
0.217671
0.217646
0.217623
0.217602
0.217581
0.217562
0.217545
0.217528
0.217512
0.217498
0.217485
0.217472
0.217461
0.21745
0.217441
0.217432
0.217424
0.217417
0.21741
0.217405
0.2174
0.217396
0.217392
0.217389
0.217387
0.217385
0.217384
0.217384
0.217383
0.217384
0.217385
0.217386
0.217388
0.217391
0.217393
0.217397
0.2174
0.217404
0.217409
0.217413
0.217418
0.217423
0.217429
0.217435
0.217441
0.217447
0.217454
0.217461
0.217468
0.217476
0.217483
0.217491
0.217499
0.217507
0.217516
0.217525
0.217533
0.217542
0.217548
0.20688
0.220309
0.220244
0.220166
0.220035
0.219821
0.219504
0.21908
0.218553
0.217935
0.217243
0.216493
0.215701
0.21488
0.214044
0.213202
0.212362
0.211532
0.210716
0.209918
0.209141
0.208387
0.207657
0.206953
0.206274
0.205622
0.204994
0.204392
0.203815
0.203262
0.202732
0.202225
0.201739
0.201275
0.200831
0.200406
0.199999
0.19961
0.199238
0.198883
0.198543
0.198217
0.197906
0.197608
0.197323
0.19705
0.196789
0.196539
0.1963
0.196071
0.195852
0.195642
0.19544
0.195247
0.195062
0.194885
0.194715
0.194552
0.194396
0.194246
0.194102
0.193964
0.193832
0.193705
0.193583
0.193466
0.193354
0.193246
0.193142
0.193043
0.192947
0.192856
0.192768
0.192683
0.192602
0.192524
0.192449
0.192377
0.192308
0.192241
0.192177
0.192116
0.192057
0.192
0.191946
0.191894
0.191844
0.191796
0.19175
0.191705
0.191663
0.191622
0.191583
0.191546
0.19151
0.191475
0.191443
0.191411
0.191381
0.191352
0.191324
0.191298
0.191273
0.191249
0.191226
0.191204
0.191183
0.191163
0.191144
0.191126
0.191109
0.191093
0.191078
0.191064
0.19105
0.191037
0.191025
0.191014
0.191003
0.190993
0.190983
0.190975
0.190967
0.190959
0.190952
0.190946
0.19094
0.190935
0.19093
0.190926
0.190922
0.190919
0.190916
0.190913
0.190911
0.19091
0.190908
0.190907
0.190907
0.190907
0.190907
0.190907
0.190908
0.19091
0.190911
0.190913
0.190915
0.190917
0.190919
0.19092
0.182755
0.194269
0.19422
0.194175
0.194111
0.194009
0.193851
0.193628
0.193335
0.192974
0.19255
0.192072
0.191547
0.190985
0.190395
0.189784
0.189161
0.18853
0.187897
0.187266
0.186641
0.186025
0.18542
0.184827
0.184249
0.183686
0.183139
0.182607
0.182093
0.181595
0.181114
0.180649
0.1802
0.179767
0.17935
0.178948
0.17856
0.178187
0.177827
0.177481
0.177148
0.176827
0.176519
0.176221
0.175935
0.17566
0.175395
0.17514
0.174894
0.174658
0.17443
0.174211
0.174
0.173796
0.1736
0.173411
0.173229
0.173054
0.172885
0.172722
0.172565
0.172413
0.172267
0.172126
0.17199
0.171859
0.171733
0.17161
0.171493
0.171379
0.171269
0.171163
0.17106
0.170961
0.170866
0.170774
0.170685
0.170598
0.170515
0.170435
0.170357
0.170282
0.17021
0.17014
0.170072
0.170007
0.169943
0.169882
0.169823
0.169766
0.169711
0.169658
0.169606
0.169557
0.169509
0.169462
0.169417
0.169374
0.169332
0.169292
0.169253
0.169215
0.169179
0.169144
0.16911
0.169078
0.169046
0.169016
0.168987
0.168958
0.168931
0.168905
0.16888
0.168856
0.168833
0.16881
0.168789
0.168768
0.168748
0.168729
0.168711
0.168693
0.168676
0.16866
0.168645
0.16863
0.168616
0.168603
0.16859
0.168578
0.168566
0.168555
0.168545
0.168535
0.168525
0.168516
0.168508
0.1685
0.168492
0.168485
0.168479
0.168472
0.168467
0.168461
0.168457
0.168452
0.168448
0.168444
0.16844
0.168436
0.161979
0.171917
0.171878
0.171848
0.171814
0.171765
0.171689
0.171578
0.171425
0.171227
0.170984
0.170698
0.170371
0.17001
0.169617
0.1692
0.168762
0.168308
0.167842
0.167369
0.166891
0.166412
0.165933
0.165458
0.164987
0.164523
0.164066
0.163617
0.163178
0.162748
0.162328
0.161919
0.161521
0.161134
0.160757
0.160391
0.160036
0.159692
0.159358
0.159034
0.15872
0.158416
0.158122
0.157837
0.157561
0.157294
0.157036
0.156785
0.156543
0.156309
0.156082
0.155863
0.15565
0.155445
0.155246
0.155053
0.154867
0.154687
0.154512
0.154343
0.154179
0.15402
0.153867
0.153718
0.153573
0.153434
0.153298
0.153167
0.15304
0.152917
0.152797
0.152682
0.152569
0.152461
0.152355
0.152253
0.152153
0.152057
0.151964
0.151873
0.151785
0.1517
0.151617
0.151536
0.151458
0.151383
0.151309
0.151238
0.151169
0.151102
0.151036
0.150973
0.150912
0.150852
0.150794
0.150738
0.150683
0.15063
0.150579
0.150529
0.150481
0.150434
0.150388
0.150344
0.150301
0.150259
0.150218
0.150179
0.150141
0.150104
0.150068
0.150034
0.15
0.149967
0.149936
0.149905
0.149875
0.149847
0.149819
0.149792
0.149766
0.14974
0.149716
0.149692
0.149669
0.149647
0.149625
0.149605
0.149585
0.149565
0.149547
0.149529
0.149511
0.149495
0.149478
0.149463
0.149448
0.149433
0.149419
0.149406
0.149393
0.149381
0.149369
0.149358
0.149347
0.149337
0.149327
0.149317
0.149308
0.149298
0.143974
0.152603
0.152572
0.152548
0.152527
0.152502
0.152466
0.152413
0.152337
0.152235
0.152105
0.151944
0.151754
0.151536
0.151291
0.151022
0.150732
0.150424
0.150101
0.149764
0.149418
0.149064
0.148704
0.148341
0.147976
0.14761
0.147246
0.146884
0.146525
0.14617
0.14582
0.145475
0.145136
0.144803
0.144476
0.144157
0.143844
0.143538
0.143239
0.142948
0.142663
0.142386
0.142116
0.141853
0.141596
0.141347
0.141104
0.140868
0.140638
0.140414
0.140196
0.139985
0.139779
0.139579
0.139385
0.139196
0.139012
0.138833
0.13866
0.138491
0.138326
0.138167
0.138011
0.13786
0.137714
0.137571
0.137432
0.137297
0.137166
0.137038
0.136914
0.136793
0.136675
0.13656
0.136449
0.136341
0.136235
0.136132
0.136032
0.135935
0.13584
0.135748
0.135658
0.135571
0.135486
0.135403
0.135322
0.135243
0.135167
0.135092
0.13502
0.134949
0.13488
0.134813
0.134747
0.134684
0.134622
0.134561
0.134502
0.134445
0.134389
0.134335
0.134282
0.13423
0.13418
0.134131
0.134083
0.134036
0.133991
0.133947
0.133904
0.133862
0.133821
0.133782
0.133743
0.133706
0.133669
0.133633
0.133599
0.133565
0.133532
0.1335
0.133469
0.133439
0.133409
0.133381
0.133353
0.133326
0.1333
0.133274
0.133249
0.133225
0.133202
0.133179
0.133157
0.133135
0.133114
0.133094
0.133074
0.133055
0.133037
0.133019
0.133002
0.132985
0.132969
0.132953
0.132938
0.132924
0.132909
0.132895
0.128289
0.135819
0.135793
0.135774
0.135759
0.135744
0.135726
0.135701
0.135665
0.135615
0.135549
0.135465
0.135361
0.135238
0.135095
0.134933
0.134753
0.134556
0.134344
0.134119
0.133881
0.133634
0.133378
0.133114
0.132845
0.132572
0.132295
0.132017
0.131737
0.131457
0.131177
0.130899
0.130622
0.130348
0.130077
0.129809
0.129544
0.129283
0.129027
0.128774
0.128526
0.128283
0.128044
0.12781
0.12758
0.127355
0.127135
0.12692
0.126709
0.126503
0.126302
0.126105
0.125913
0.125725
0.125542
0.125363
0.125188
0.125017
0.12485
0.124687
0.124528
0.124373
0.124222
0.124074
0.12393
0.123789
0.123652
0.123518
0.123387
0.123259
0.123134
0.123012
0.122894
0.122778
0.122664
0.122554
0.122446
0.122341
0.122238
0.122137
0.122039
0.121944
0.12185
0.121759
0.12167
0.121583
0.121498
0.121415
0.121334
0.121254
0.121177
0.121101
0.121028
0.120955
0.120885
0.120816
0.120749
0.120683
0.120619
0.120556
0.120495
0.120435
0.120377
0.12032
0.120264
0.12021
0.120156
0.120104
0.120054
0.120004
0.119956
0.119908
0.119862
0.119817
0.119773
0.11973
0.119688
0.119646
0.119606
0.119567
0.119529
0.119492
0.119455
0.119419
0.119385
0.119351
0.119318
0.119285
0.119254
0.119223
0.119193
0.119164
0.119135
0.119107
0.11908
0.119054
0.119028
0.119003
0.118978
0.118954
0.118931
0.118908
0.118886
0.118865
0.118844
0.118824
0.118804
0.118785
0.118766
0.118747
0.11456
0.121161
0.121139
0.121123
0.121111
0.121101
0.12109
0.121078
0.121061
0.121038
0.121006
0.120965
0.120912
0.120847
0.120769
0.120677
0.120572
0.120455
0.120325
0.120183
0.12003
0.119867
0.119695
0.119514
0.119327
0.119133
0.118934
0.11873
0.118523
0.118312
0.1181
0.117885
0.11767
0.117454
0.117239
0.117023
0.116809
0.116596
0.116384
0.116174
0.115966
0.115761
0.115558
0.115357
0.115159
0.114964
0.114772
0.114583
0.114397
0.114214
0.114035
0.113858
0.113685
0.113514
0.113347
0.113183
0.113022
0.112865
0.11271
0.112558
0.11241
0.112264
0.112121
0.111981
0.111844
0.11171
0.111579
0.11145
0.111324
0.1112
0.111079
0.110961
0.110845
0.110731
0.11062
0.110511
0.110405
0.1103
0.110198
0.110098
0.11
0.109904
0.10981
0.109718
0.109628
0.109539
0.109453
0.109368
0.109286
0.109205
0.109125
0.109047
0.108971
0.108897
0.108823
0.108752
0.108682
0.108613
0.108546
0.10848
0.108416
0.108353
0.108291
0.10823
0.108171
0.108113
0.108056
0.108001
0.107946
0.107893
0.10784
0.107789
0.107739
0.10769
0.107642
0.107595
0.107549
0.107504
0.10746
0.107416
0.107374
0.107333
0.107292
0.107253
0.107214
0.107176
0.107138
0.107102
0.107066
0.107032
0.106997
0.106964
0.106931
0.106899
0.106868
0.106838
0.106808
0.106779
0.10675
0.106722
0.106695
0.106668
0.106642
0.106617
0.106592
0.106568
0.106544
0.106521
0.106499
0.106477
0.102495
0.108304
0.108286
0.108272
0.108261
0.108253
0.108246
0.108239
0.10823
0.108219
0.108205
0.108186
0.10816
0.108128
0.108089
0.108041
0.107984
0.107919
0.107844
0.10776
0.107668
0.107568
0.107459
0.107343
0.10722
0.10709
0.106955
0.106814
0.106668
0.106518
0.106365
0.106208
0.106049
0.105887
0.105723
0.105559
0.105393
0.105226
0.105059
0.104892
0.104725
0.104559
0.104393
0.104229
0.104065
0.103902
0.103741
0.103581
0.103423
0.103267
0.103112
0.102959
0.102809
0.10266
0.102513
0.102368
0.102225
0.102084
0.101946
0.101809
0.101675
0.101542
0.101412
0.101284
0.101158
0.101035
0.100913
0.100793
0.100676
0.10056
0.100446
0.100335
0.100225
0.100117
0.100012
0.0999078
0.0998057
0.0997055
0.0996071
0.0995105
0.0994156
0.0993224
0.0992309
0.0991411
0.0990529
0.0989663
0.0988813
0.0987979
0.098716
0.0986356
0.0985566
0.0984791
0.0984031
0.0983284
0.0982551
0.0981832
0.0981126
0.0980432
0.0979752
0.0979084
0.0978429
0.0977786
0.0977154
0.0976534
0.0975926
0.0975329
0.0974743
0.0974168
0.0973604
0.097305
0.0972507
0.0971974
0.097145
0.0970937
0.0970433
0.0969938
0.0969453
0.0968977
0.096851
0.0968052
0.0967602
0.0967161
0.0966728
0.0966304
0.0965887
0.0965479
0.0965078
0.0964686
0.09643
0.0963922
0.0963552
0.0963188
0.0962832
0.0962483
0.096214
0.0961805
0.0961475
0.0961153
0.0960837
0.0960527
0.0960224
0.0959927
0.0959637
0.0959352
0.0959074
0.0958802
0.0958536
0.0958275
0.095802
0.0957771
0.0918531
0.0969829
0.0969678
0.0969559
0.0969468
0.0969398
0.0969341
0.0969292
0.0969243
0.0969189
0.0969122
0.0969035
0.0968922
0.0968775
0.0968589
0.0968356
0.0968073
0.0967734
0.0967338
0.0966882
0.0966365
0.0965786
0.0965147
0.0964448
0.0963691
0.0962878
0.0962012
0.0961096
0.0960133
0.0959126
0.0958079
0.0956994
0.0955876
0.0954727
0.0953551
0.0952352
0.0951131
0.0949892
0.0948637
0.094737
0.0946092
0.0944806
0.0943514
0.0942218
0.094092
0.0939622
0.0938325
0.093703
0.093574
0.0934454
0.0933175
0.0931904
0.0930641
0.0929387
0.0928143
0.0926909
0.0925687
0.0924476
0.0923278
0.0922092
0.0920919
0.0919759
0.0918613
0.0917481
0.0916363
0.0915259
0.0914169
0.0913093
0.0912032
0.0910985
0.0909953
0.0908935
0.0907932
0.0906943
0.0905968
0.0905008
0.0904062
0.090313
0.0902211
0.0901307
0.0900417
0.089954
0.0898676
0.0897826
0.0896989
0.0896166
0.0895355
0.0894557
0.0893771
0.0892998
0.0892238
0.0891489
0.0890753
0.0890028
0.0889315
0.0888613
0.0887923
0.0887244
0.0886576
0.0885919
0.0885273
0.0884637
0.0884012
0.0883396
0.0882792
0.0882197
0.0881611
0.0881036
0.088047
0.0879913
0.0879366
0.0878828
0.0878299
0.0877779
0.0877267
0.0876764
0.087627
0.0875783
0.0875306
0.0874836
0.0874374
0.087392
0.0873474
0.0873035
0.0872604
0.087218
0.0871764
0.0871355
0.0870952
0.0870557
0.0870169
0.0869788
0.0869413
0.0869045
0.0868683
0.0868328
0.0867979
0.0867637
0.08673
0.086697
0.0866646
0.0866328
0.0866016
0.086571
0.0865411
0.0865117
0.0864829
0.0864546
0.086427
0.0864002
0.0824382
0.0869817
0.0869692
0.0869589
0.0869509
0.0869446
0.0869398
0.0869358
0.0869324
0.0869293
0.0869259
0.086922
0.0869171
0.0869108
0.0869027
0.0868924
0.0868795
0.0868635
0.0868443
0.0868214
0.0867947
0.086764
0.0867292
0.0866902
0.086647
0.0865996
0.086548
0.0864924
0.0864328
0.0863694
0.0863023
0.0862318
0.0861579
0.086081
0.0860011