/*--------------------------------*- C++ -*----------------------------------*\
| =========                 |                                                 |
| \\      /  F ield         | OpenFOAM: The Open Source CFD Toolbox           |
|  \\    /   O peration     | Version:  5.x                                   |
|   \\  /    A nd           | Web:      www.OpenFOAM.org                      |
|    \\/     M anipulation  |                                                 |
\*---------------------------------------------------------------------------*/
FoamFile
{
    version     2.0;
    format      ascii;
    class       volScalarField;
    location    "0";
    object      k;
}
// * * * * * * * * * * * * * * * * * * * * * * * * * * * * * * * * * * * * * //

dimensions      [0 2 -2 0 0 0 0];

internalField   nonuniform List<scalar> 
86400
(
1.33814
1.22539
1.22105
1.22031
1.22068
1.22145
1.22237
1.22333
1.22428
1.22521
1.2261
1.22696
1.22777
1.22854
1.22928
1.22998
1.23065
1.23129
1.2319
1.23248
1.23303
1.23356
1.23407
1.23456
1.23503
1.23548
1.23591
1.23632
1.23673
1.23711
1.23749
1.23785
1.2382
1.23853
1.23886
1.23918
1.23949
1.23979
1.24008
1.24036
1.24064
1.2409
1.24117
1.24142
1.24167
1.24191
1.24215
1.24238
1.24261
1.24283
1.24304
1.24325
1.24346
1.24366
1.24386
1.24406
1.24425
1.24443
1.24462
1.24479
1.24497
1.24514
1.24531
1.24548
1.24564
1.2458
1.24596
1.24611
1.24626
1.24641
1.24655
1.24669
1.24683
1.24697
1.24711
1.24724
1.24737
1.24749
1.24762
1.24774
1.24786
1.24798
1.2481
1.24821
1.24832
1.24843
1.24854
1.24864
1.24875
1.24885
1.24895
1.24904
1.24914
1.24923
1.24933
1.24942
1.24951
1.24959
1.24968
1.24976
1.24984
1.24992
1.25
1.25008
1.25015
1.25023
1.2503
1.25037
1.25044
1.2505
1.25057
1.25063
1.2507
1.25076
1.25082
1.25088
1.25093
1.25099
1.25104
1.25109
1.25114
1.25119
1.25124
1.25129
1.25133
1.25138
1.25142
1.25146
1.2515
1.25154
1.25157
1.25161
1.25164
1.25167
1.2517
1.25173
1.25176
1.25178
1.2518
1.25183
1.25184
1.25186
1.25187
1.25189
1.25189
1.2519
1.2519
1.25191
1.25191
1.25192
1.3438
1.29711
1.28186
1.27502
1.27171
1.27005
1.26926
1.26895
1.26894
1.26911
1.2694
1.26975
1.27016
1.27059
1.27104
1.2715
1.27195
1.27241
1.27286
1.27331
1.27374
1.27417
1.27459
1.275
1.27539
1.27578
1.27615
1.27652
1.27688
1.27722
1.27756
1.27789
1.27821
1.27852
1.27882
1.27912
1.2794
1.27969
1.27996
1.28023
1.28049
1.28074
1.28099
1.28124
1.28147
1.28171
1.28193
1.28216
1.28238
1.28259
1.2828
1.28301
1.28321
1.2834
1.2836
1.28379
1.28397
1.28416
1.28434
1.28451
1.28469
1.28486
1.28502
1.28519
1.28535
1.2855
1.28566
1.28581
1.28596
1.28611
1.28625
1.28639
1.28653
1.28667
1.2868
1.28693
1.28706
1.28719
1.28731
1.28744
1.28756
1.28767
1.28779
1.28791
1.28802
1.28813
1.28824
1.28834
1.28845
1.28855
1.28865
1.28875
1.28884
1.28894
1.28903
1.28913
1.28922
1.2893
1.28939
1.28948
1.28956
1.28964
1.28972
1.2898
1.28988
1.28995
1.29003
1.2901
1.29017
1.29024
1.29031
1.29038
1.29044
1.29051
1.29057
1.29063
1.29069
1.29075
1.29081
1.29086
1.29092
1.29097
1.29102
1.29108
1.29112
1.29117
1.29122
1.29126
1.29131
1.29135
1.29139
1.29143
1.29147
1.29151
1.29154
1.29158
1.29161
1.29164
1.29167
1.2917
1.29173
1.29175
1.29177
1.2918
1.29181
1.29183
1.29185
1.29186
1.29187
1.29188
1.35708
1.30925
1.28619
1.27315
1.26524
1.26013
1.25667
1.25425
1.25253
1.25129
1.2504
1.24976
1.2493
1.24899
1.24879
1.24867
1.24863
1.24863
1.24868
1.24876
1.24887
1.249
1.24915
1.24931
1.24948
1.24966
1.24985
1.25004
1.25023
1.25043
1.25062
1.25082
1.25102
1.25121
1.25141
1.25161
1.2518
1.25199
1.25218
1.25237
1.25255
1.25274
1.25292
1.2531
1.25327
1.25345
1.25362
1.25379
1.25396
1.25412
1.25429
1.25445
1.25461
1.25476
1.25492
1.25507
1.25522
1.25537
1.25551
1.25566
1.2558
1.25594
1.25607
1.25621
1.25634
1.25647
1.2566
1.25673
1.25685
1.25698
1.2571
1.25722
1.25734
1.25745
1.25757
1.25768
1.25779
1.2579
1.258
1.25811
1.25821
1.25832
1.25842
1.25851
1.25861
1.25871
1.2588
1.25889
1.25899
1.25908
1.25916
1.25925
1.25934
1.25942
1.2595
1.25958
1.25966
1.25974
1.25982
1.25989
1.25997
1.26004
1.26011
1.26018
1.26025
1.26032
1.26039
1.26045
1.26052
1.26058
1.26065
1.26071
1.26077
1.26082
1.26088
1.26094
1.26099
1.26105
1.2611
1.26115
1.2612
1.26125
1.2613
1.26135
1.2614
1.26144
1.26149
1.26153
1.26157
1.26161
1.26165
1.26169
1.26173
1.26176
1.2618
1.26183
1.26187
1.2619
1.26193
1.26196
1.26199
1.26202
1.26204
1.26207
1.26209
1.26211
1.26213
1.26215
1.26216
1.26218
1.36413
1.33047
1.3065
1.29038
1.27934
1.27149
1.26571
1.26133
1.25794
1.25526
1.25313
1.25141
1.25001
1.24886
1.24792
1.24714
1.2465
1.24597
1.24554
1.24518
1.24489
1.24465
1.24446
1.24431
1.2442
1.24411
1.24405
1.24402
1.244
1.244
1.24401
1.24404
1.24408
1.24412
1.24418
1.24424
1.24431
1.24438
1.24446
1.24454
1.24462
1.24471
1.2448
1.2449
1.24499
1.24509
1.24518
1.24528
1.24538
1.24548
1.24558
1.24569
1.24579
1.24589
1.24599
1.24609
1.24619
1.24629
1.24639
1.24649
1.24659
1.24669
1.24679
1.24689
1.24698
1.24708
1.24717
1.24727
1.24736
1.24745
1.24755
1.24764
1.24773
1.24782
1.2479
1.24799
1.24808
1.24816
1.24824
1.24833
1.24841
1.24849
1.24857
1.24865
1.24872
1.2488
1.24888
1.24895
1.24902
1.2491
1.24917
1.24924
1.24931
1.24938
1.24945
1.24951
1.24958
1.24964
1.24971
1.24977
1.24983
1.24989
1.24995
1.25001
1.25007
1.25013
1.25019
1.25024
1.2503
1.25035
1.2504
1.25046
1.25051
1.25056
1.25061
1.25066
1.2507
1.25075
1.2508
1.25084
1.25089
1.25093
1.25097
1.25102
1.25106
1.2511
1.25114
1.25117
1.25121
1.25125
1.25129
1.25132
1.25135
1.25139
1.25142
1.25145
1.25148
1.25151
1.25154
1.25157
1.2516
1.25162
1.25165
1.25167
1.2517
1.25172
1.25174
1.25176
1.25178
1.25179
1.36704
1.34692
1.32663
1.31042
1.29809
1.28863
1.28124
1.27536
1.27059
1.26668
1.26343
1.26071
1.2584
1.25643
1.25474
1.25329
1.25203
1.25093
1.24998
1.24914
1.24841
1.24776
1.2472
1.2467
1.24626
1.24587
1.24553
1.24523
1.24497
1.24474
1.24453
1.24436
1.2442
1.24406
1.24395
1.24385
1.24376
1.24369
1.24363
1.24358
1.24354
1.24351
1.24349
1.24348
1.24347
1.24347
1.24347
1.24348
1.2435
1.24352
1.24354
1.24356
1.24359
1.24362
1.24366
1.2437
1.24373
1.24378
1.24382
1.24386
1.24391
1.24396
1.244
1.24405
1.2441
1.24415
1.24421
1.24426
1.24431
1.24436
1.24441
1.24447
1.24452
1.24458
1.24463
1.24468
1.24474
1.24479
1.24484
1.2449
1.24495
1.245
1.24505
1.24511
1.24516
1.24521
1.24526
1.24531
1.24536
1.24541
1.24546
1.24551
1.24556
1.24561
1.24566
1.24571
1.24575
1.2458
1.24585
1.24589
1.24594
1.24598
1.24603
1.24607
1.24611
1.24616
1.2462
1.24624
1.24628
1.24632
1.24636
1.2464
1.24644
1.24648
1.24652
1.24656
1.24659
1.24663
1.24667
1.2467
1.24674
1.24677
1.24681
1.24684
1.24687
1.24691
1.24694
1.24697
1.247
1.24703
1.24706
1.24709
1.24712
1.24714
1.24717
1.2472
1.24722
1.24725
1.24727
1.2473
1.24732
1.24734
1.24736
1.24739
1.24741
1.24743
1.24745
1.24746
1.24748
1.24749
1.36809
1.35734
1.3425
1.32836
1.31637
1.30648
1.29832
1.29154
1.28584
1.28101
1.27689
1.27333
1.27024
1.26755
1.26519
1.26311
1.26126
1.25962
1.25816
1.25685
1.25567
1.25462
1.25366
1.2528
1.25202
1.25132
1.25067
1.25009
1.24956
1.24907
1.24863
1.24823
1.24786
1.24752
1.24721
1.24693
1.24667
1.24643
1.24622
1.24602
1.24583
1.24567
1.24552
1.24538
1.24525
1.24513
1.24503
1.24493
1.24485
1.24477
1.2447
1.24463
1.24458
1.24453
1.24448
1.24444
1.24441
1.24437
1.24435
1.24433
1.24431
1.24429
1.24428
1.24427
1.24426
1.24426
1.24426
1.24426
1.24426
1.24426
1.24427
1.24428
1.24429
1.2443
1.24431
1.24432
1.24433
1.24435
1.24436
1.24438
1.2444
1.24442
1.24444
1.24446
1.24448
1.2445
1.24452
1.24454
1.24456
1.24458
1.2446
1.24463
1.24465
1.24467
1.2447
1.24472
1.24474
1.24477
1.24479
1.24482
1.24484
1.24486
1.24489
1.24491
1.24494
1.24496
1.24499
1.24501
1.24503
1.24506
1.24508
1.2451
1.24513
1.24515
1.24518
1.2452
1.24522
1.24525
1.24527
1.24529
1.24531
1.24534
1.24536
1.24538
1.2454
1.24542
1.24544
1.24546
1.24548
1.2455
1.24552
1.24554
1.24556
1.24558
1.2456
1.24562
1.24564
1.24566
1.24567
1.24569
1.24571
1.24572
1.24574
1.24575
1.24577
1.24578
1.2458
1.24581
1.24582
1.24583
1.36841
1.36319
1.35358
1.3426
1.33215
1.32283
1.3147
1.30764
1.3015
1.29614
1.29144
1.2873
1.28364
1.28037
1.27746
1.27485
1.2725
1.27038
1.26846
1.26671
1.26512
1.26368
1.26235
1.26114
1.26002
1.259
1.25806
1.25719
1.25638
1.25564
1.25495
1.25431
1.25372
1.25317
1.25265
1.25218
1.25173
1.25132
1.25093
1.25057
1.25023
1.24992
1.24962
1.24934
1.24908
1.24884
1.24861
1.2484
1.2482
1.24801
1.24784
1.24767
1.24752
1.24737
1.24724
1.24711
1.24699
1.24688
1.24677
1.24667
1.24658
1.24649
1.24641
1.24633
1.24626
1.24619
1.24613
1.24607
1.24601
1.24596
1.24591
1.24586
1.24582
1.24578
1.24574
1.2457
1.24567
1.24564
1.24561
1.24559
1.24556
1.24554
1.24552
1.2455
1.24548
1.24546
1.24545
1.24543
1.24542
1.24541
1.2454
1.24539
1.24538
1.24537
1.24537
1.24536
1.24536
1.24535
1.24535
1.24535
1.24535
1.24534
1.24534
1.24534
1.24534
1.24535
1.24535
1.24535
1.24535
1.24536
1.24536
1.24536
1.24537
1.24537
1.24538
1.24538
1.24539
1.24539
1.2454
1.2454
1.24541
1.24542
1.24542
1.24543
1.24544
1.24545
1.24545
1.24546
1.24547
1.24548
1.24548
1.24549
1.2455
1.24551
1.24551
1.24552
1.24553
1.24553
1.24554
1.24555
1.24556
1.24556
1.24557
1.24558
1.24558
1.24559
1.2456
1.2456
1.24561
1.24561
1.36847
1.36616
1.36061
1.35293
1.34466
1.33664
1.3292
1.32244
1.31634
1.31085
1.30591
1.30146
1.29744
1.2938
1.2905
1.28749
1.28475
1.28224
1.27994
1.27783
1.27589
1.27409
1.27244
1.2709
1.26948
1.26816
1.26694
1.26579
1.26473
1.26373
1.2628
1.26193
1.26112
1.26035
1.25964
1.25896
1.25833
1.25773
1.25717
1.25664
1.25614
1.25567
1.25522
1.2548
1.2544
1.25402
1.25367
1.25333
1.25301
1.2527
1.25241
1.25214
1.25188
1.25163
1.25139
1.25117
1.25095
1.25075
1.25056
1.25037
1.2502
1.25003
1.24987
1.24972
1.24957
1.24943
1.2493
1.24917
1.24905
1.24893
1.24882
1.24871
1.24861
1.24851
1.24842
1.24833
1.24824
1.24816
1.24808
1.248
1.24793
1.24786
1.24779
1.24773
1.24767
1.24761
1.24755
1.2475
1.24744
1.24739
1.24735
1.2473
1.24725
1.24721
1.24717
1.24713
1.24709
1.24706
1.24702
1.24699
1.24696
1.24692
1.2469
1.24687
1.24684
1.24681
1.24679
1.24676
1.24674
1.24672
1.2467
1.24668
1.24666
1.24664
1.24662
1.24661
1.24659
1.24658
1.24656
1.24655
1.24654
1.24652
1.24651
1.2465
1.24649
1.24648
1.24647
1.24646
1.24645
1.24644
1.24643
1.24643
1.24642
1.24641
1.24641
1.2464
1.24639
1.24639
1.24638
1.24638
1.24637
1.24637
1.24636
1.24636
1.24635
1.24635
1.24634
1.24634
1.24634
1.24633
1.36847
1.36753
1.36469
1.35986
1.35391
1.34756
1.34127
1.33525
1.3296
1.32435
1.31949
1.31501
1.31088
1.30707
1.30356
1.30032
1.29732
1.29454
1.29197
1.28958
1.28736
1.28529
1.28336
1.28156
1.27987
1.2783
1.27682
1.27543
1.27413
1.2729
1.27175
1.27066
1.26964
1.26867
1.26776
1.26689
1.26607
1.2653
1.26457
1.26387
1.26321
1.26258
1.26198
1.26141
1.26087
1.26036
1.25987
1.2594
1.25895
1.25853
1.25812
1.25773
1.25736
1.257
1.25666
1.25634
1.25602
1.25572
1.25544
1.25516
1.2549
1.25464
1.2544
1.25416
1.25394
1.25372
1.25351
1.25331
1.25312
1.25293
1.25275
1.25258
1.25241
1.25225
1.2521
1.25195
1.2518
1.25166
1.25153
1.2514
1.25127
1.25115
1.25103
1.25091
1.2508
1.2507
1.25059
1.25049
1.25039
1.2503
1.25021
1.25012
1.25003
1.24995
1.24987
1.24979
1.24972
1.24964
1.24957
1.2495
1.24944
1.24937
1.24931
1.24925
1.24919
1.24913
1.24908
1.24902
1.24897
1.24892
1.24887
1.24882
1.24878
1.24873
1.24869
1.24865
1.24861
1.24857
1.24853
1.24849
1.24845
1.24842
1.24839
1.24835
1.24832
1.24829
1.24826
1.24823
1.2482
1.24818
1.24815
1.24812
1.2481
1.24807
1.24805
1.24803
1.248
1.24798
1.24796
1.24794
1.24792
1.2479
1.24788
1.24786
1.24784
1.24783
1.24781
1.24779
1.24778
1.24775
1.36846
1.36811
1.36686
1.36415
1.36026
1.35566
1.35074
1.34575
1.34086
1.33614
1.33165
1.32739
1.32339
1.31962
1.31609
1.31278
1.30967
1.30676
1.30403
1.30147
1.29906
1.2968
1.29467
1.29266
1.29077
1.28899
1.28731
1.28572
1.28422
1.2828
1.28145
1.28017
1.27896
1.27781
1.27672
1.27568
1.27469
1.27375
1.27285
1.272
1.27118
1.27041
1.26966
1.26895
1.26827
1.26762
1.267
1.26641
1.26583
1.26529
1.26476
1.26426
1.26377
1.26331
1.26286
1.26243
1.26202
1.26162
1.26124
1.26087
1.26051
1.26017
1.25984
1.25952
1.25921
1.25891
1.25862
1.25835
1.25808
1.25782
1.25756
1.25732
1.25708
1.25686
1.25663
1.25642
1.25621
1.25601
1.25581
1.25562
1.25544
1.25526
1.25509
1.25492
1.25475
1.2546
1.25444
1.25429
1.25414
1.254
1.25386
1.25373
1.2536
1.25347
1.25335
1.25323
1.25311
1.25299
1.25288
1.25278
1.25267
1.25257
1.25247
1.25237
1.25228
1.25218
1.25209
1.25201
1.25192
1.25184
1.25176
1.25168
1.2516
1.25153
1.25145
1.25138
1.25131
1.25125
1.25118
1.25112
1.25105
1.25099
1.25093
1.25088
1.25082
1.25077
1.25071
1.25066
1.25061
1.25056
1.25051
1.25047
1.25042
1.25038
1.25033
1.25029
1.25025
1.25021
1.25017
1.25013
1.25009
1.25005
1.25002
1.24998
1.24995
1.24991
1.24988
1.24985
1.24982
1.24978
1.36845
1.36833
1.36791
1.3666
1.36432
1.36127
1.35772
1.35389
1.34993
1.34596
1.34204
1.33823
1.33455
1.33102
1.32765
1.32443
1.32137
1.31846
1.31569
1.31307
1.31058
1.30822
1.30598
1.30385
1.30182
1.2999
1.29807
1.29634
1.29468
1.29311
1.2916
1.29017
1.28881
1.2875
1.28626
1.28507
1.28393
1.28285
1.28181
1.28081
1.27986
1.27894
1.27806
1.27722
1.27641
1.27564
1.27489
1.27417
1.27348
1.27282
1.27218
1.27156
1.27097
1.2704
1.26985
1.26932
1.2688
1.26831
1.26783
1.26736
1.26692
1.26648
1.26606
1.26566
1.26527
1.26489
1.26452
1.26416
1.26381
1.26348
1.26315
1.26283
1.26253
1.26223
1.26194
1.26166
1.26138
1.26112
1.26086
1.2606
1.26036
1.26012
1.25989
1.25966
1.25944
1.25923
1.25902
1.25881
1.25862
1.25842
1.25823
1.25805
1.25787
1.2577
1.25753
1.25736
1.2572
1.25704
1.25688
1.25673
1.25659
1.25644
1.2563
1.25617
1.25603
1.2559
1.25577
1.25565
1.25553
1.25541
1.25529
1.25518
1.25507
1.25496
1.25486
1.25475
1.25465
1.25456
1.25446
1.25437
1.25428
1.25419
1.2541
1.25401
1.25393
1.25385
1.25377
1.25369
1.25362
1.25354
1.25347
1.2534
1.25333
1.25326
1.25319
1.25313
1.25307
1.253
1.25294
1.25288
1.25282
1.25277
1.25271
1.25266
1.2526
1.25255
1.2525
1.25245
1.2524
1.25235
1.36845
1.36838
1.36836
1.36787
1.36671
1.3649
1.36256
1.35984
1.35686
1.35373
1.35053
1.34731
1.34411
1.34097
1.3379
1.33493
1.33205
1.32927
1.3266
1.32403
1.32157
1.31921
1.31694
1.31477
1.31269
1.3107
1.30879
1.30697
1.30522
1.30354
1.30193
1.30039
1.29891
1.29749
1.29613
1.29482
1.29357
1.29236
1.2912
1.29009
1.28902
1.28798
1.28699
1.28603
1.28511
1.28422
1.28336
1.28254
1.28174
1.28097
1.28022
1.2795
1.27881
1.27814
1.27749
1.27686
1.27625
1.27566
1.27509
1.27453
1.274
1.27348
1.27297
1.27248
1.27201
1.27155
1.2711
1.27066
1.27024
1.26983
1.26943
1.26904
1.26866
1.26829
1.26793
1.26758
1.26724
1.26691
1.26658
1.26627
1.26596
1.26566
1.26537
1.26508
1.2648
1.26453
1.26427
1.26401
1.26375
1.26351
1.26327
1.26303
1.2628
1.26258
1.26236
1.26214
1.26193
1.26173
1.26153
1.26133
1.26114
1.26095
1.26077
1.26059
1.26042
1.26024
1.26008
1.25991
1.25975
1.2596
1.25944
1.25929
1.25915
1.259
1.25886
1.25872
1.25859
1.25846
1.25833
1.2582
1.25808
1.25796
1.25784
1.25773
1.25761
1.2575
1.25739
1.25729
1.25718
1.25708
1.25698
1.25689
1.25679
1.2567
1.25661
1.25652
1.25643
1.25634
1.25626
1.25617
1.25609
1.25601
1.25594
1.25586
1.25579
1.25571
1.25564
1.25557
1.2555
1.25543
1.36846
1.36839
1.36851
1.36845
1.36799
1.36706
1.36568
1.36392
1.36185
1.35956
1.35711
1.35455
1.35193
1.34929
1.34665
1.34404
1.34146
1.33893
1.33646
1.33405
1.33172
1.32945
1.32725
1.32513
1.32308
1.32109
1.31918
1.31733
1.31554
1.31382
1.31216
1.31056
1.30902
1.30753
1.30609
1.3047
1.30337
1.30207
1.30083
1.29962
1.29846
1.29734
1.29625
1.2952
1.29418
1.2932
1.29225
1.29133
1.29044
1.28958
1.28874
1.28793
1.28714
1.28638
1.28564
1.28493
1.28423
1.28356
1.2829
1.28226
1.28164
1.28104
1.28046
1.27989
1.27933
1.27879
1.27827
1.27776
1.27726
1.27678
1.2763
1.27584
1.27539
1.27496
1.27453
1.27411
1.27371
1.27331
1.27292
1.27254
1.27217
1.27181
1.27146
1.27112
1.27078
1.27045
1.27013
1.26981
1.2695
1.2692
1.26891
1.26862
1.26834
1.26806
1.26779
1.26753
1.26727
1.26702
1.26677
1.26653
1.26629
1.26606
1.26583
1.26561
1.26539
1.26518
1.26497
1.26476
1.26456
1.26436
1.26417
1.26398
1.2638
1.26362
1.26344
1.26327
1.26309
1.26293
1.26276
1.2626
1.26245
1.26229
1.26214
1.26199
1.26185
1.26171
1.26157
1.26143
1.2613
1.26117
1.26104
1.26091
1.26079
1.26067
1.26055
1.26043
1.26032
1.2602
1.26009
1.25999
1.25988
1.25978
1.25967
1.25957
1.25948
1.25938
1.25929
1.25919
1.2591
1.25901
1.36847
1.36838
1.36853
1.36866
1.36859
1.36823
1.36753
1.36652
1.36522
1.36367
1.36193
1.36004
1.35803
1.35594
1.3538
1.35162
1.34942
1.34723
1.34506
1.3429
1.34078
1.3387
1.33666
1.33466
1.33271
1.33081
1.32895
1.32715
1.3254
1.3237
1.32204
1.32044
1.31888
1.31737
1.3159
1.31448
1.3131
1.31176
1.31046
1.3092
1.30798
1.30679
1.30564
1.30453
1.30344
1.30239
1.30137
1.30038
1.29941
1.29848
1.29757
1.29669
1.29583
1.29499
1.29418
1.29339
1.29262
1.29187
1.29114
1.29043
1.28973
1.28906
1.2884
1.28776
1.28714
1.28653
1.28593
1.28535
1.28479
1.28423
1.28369
1.28317
1.28265
1.28215
1.28166
1.28118
1.28071
1.28025
1.2798
1.27936
1.27893
1.27851
1.2781
1.2777
1.27731
1.27692
1.27654
1.27617
1.27581
1.27546
1.27511
1.27477
1.27444
1.27411
1.27379
1.27348
1.27317
1.27287
1.27257
1.27229
1.272
1.27172
1.27145
1.27118
1.27092
1.27066
1.27041
1.27016
1.26992
1.26968
1.26945
1.26922
1.269
1.26878
1.26856
1.26835
1.26814
1.26794
1.26774
1.26754
1.26735
1.26716
1.26697
1.26679
1.26661
1.26644
1.26627
1.2661
1.26593
1.26577
1.26561
1.26545
1.2653
1.26515
1.265
1.26486
1.26471
1.26457
1.26444
1.2643
1.26417
1.26404
1.26391
1.26379
1.26366
1.26354
1.26342
1.26331
1.26319
1.26307
1.36848
1.36837
1.3685
1.3687
1.36882
1.36878
1.36852
1.36804
1.36732
1.36638
1.36526
1.36397
1.36254
1.36099
1.35935
1.35764
1.35588
1.35408
1.35226
1.35043
1.34859
1.34676
1.34494
1.34314
1.34137
1.33962
1.33789
1.3362
1.33454
1.33292
1.33133
1.32977
1.32826
1.32677
1.32532
1.32391
1.32253
1.32119
1.31988
1.31861
1.31736
1.31615
1.31497
1.31382
1.3127
1.3116
1.31054
1.3095
1.30849
1.3075
1.30654
1.3056
1.30469
1.3038
1.30293
1.30208
1.30125
1.30044
1.29965
1.29888
1.29813
1.2974
1.29668
1.29598
1.29529
1.29462
1.29397
1.29333
1.2927
1.29209
1.29149
1.29091
1.29033
1.28977
1.28922
1.28869
1.28816
1.28764
1.28714
1.28664
1.28616
1.28568
1.28522
1.28476
1.28431
1.28388
1.28345
1.28303
1.28261
1.28221
1.28181
1.28142
1.28104
1.28066
1.28029
1.27993
1.27958
1.27923
1.27889
1.27855
1.27822
1.2779
1.27758
1.27727
1.27697
1.27667
1.27637
1.27608
1.2758
1.27552
1.27524
1.27498
1.27471
1.27445
1.2742
1.27395
1.2737
1.27346
1.27322
1.27299
1.27276
1.27254
1.27232
1.2721
1.27189
1.27168
1.27147
1.27127
1.27107
1.27088
1.27069
1.2705
1.27031
1.27013
1.26996
1.26978
1.26961
1.26944
1.26927
1.26911
1.26895
1.26879
1.26864
1.26848
1.26834
1.26819
1.26804
1.2679
1.26776
1.26762
1.36849
1.36837
1.36846
1.36866
1.36885
1.36897
1.36897
1.36882
1.36851
1.36803
1.36738
1.36659
1.36566
1.36461
1.36345
1.3622
1.36087
1.35948
1.35804
1.35656
1.35505
1.35353
1.35198
1.35044
1.34889
1.34734
1.34581
1.34428
1.34277
1.34128
1.33981
1.33836
1.33693
1.33553
1.33415
1.33279
1.33146
1.33016
1.32888
1.32763
1.3264
1.3252
1.32402
1.32287
1.32174
1.32064
1.31956
1.31851
1.31748
1.31647
1.31548
1.31451
1.31357
1.31264
1.31174
1.31085
1.30998
1.30913
1.3083
1.30749
1.3067
1.30592
1.30515
1.30441
1.30367
1.30296
1.30225
1.30157
1.30089
1.30023
1.29958
1.29895
1.29833
1.29772
1.29712
1.29653
1.29595
1.29539
1.29483
1.29429
1.29376
1.29323
1.29272
1.29221
1.29172
1.29123
1.29076
1.29029
1.28983
1.28937
1.28893
1.28849
1.28807
1.28764
1.28723
1.28682
1.28643
1.28603
1.28565
1.28527
1.2849
1.28453
1.28417
1.28382
1.28347
1.28313
1.28279
1.28246
1.28214
1.28182
1.28151
1.2812
1.2809
1.2806
1.28031
1.28002
1.27974
1.27946
1.27919
1.27892
1.27865
1.27839
1.27814
1.27789
1.27764
1.2774
1.27716
1.27692
1.27669
1.27646
1.27624
1.27602
1.2758
1.27559
1.27538
1.27518
1.27497
1.27478
1.27458
1.27439
1.2742
1.27401
1.27383
1.27365
1.27347
1.2733
1.27313
1.27296
1.27279
1.27263
1.3685
1.36837
1.36843
1.3686
1.3688
1.36899
1.36911
1.36916
1.36909
1.36892
1.36862
1.3682
1.36767
1.36702
1.36628
1.36543
1.36451
1.36351
1.36245
1.36133
1.36016
1.35896
1.35772
1.35645
1.35517
1.35387
1.35257
1.35125
1.34994
1.34863
1.34732
1.34602
1.34473
1.34344
1.34218
1.34092
1.33968
1.33846
1.33725
1.33606
1.33489
1.33374
1.3326
1.33149
1.33039
1.32931
1.32825
1.32721
1.32619
1.32518
1.32419
1.32322
1.32227
1.32134
1.32042
1.31952
1.31864
1.31777
1.31692
1.31608
1.31526
1.31446
1.31367
1.31289
1.31213
1.31138
1.31064
1.30992
1.30921
1.30852
1.30783
1.30716
1.3065
1.30585
1.30522
1.30459
1.30398
1.30337
1.30278
1.30219
1.30162
1.30106
1.3005
1.29996
1.29942
1.29889
1.29838
1.29787
1.29736
1.29687
1.29639
1.29591
1.29544
1.29498
1.29453
1.29408
1.29364
1.29321
1.29278
1.29237
1.29195
1.29155
1.29115
1.29076
1.29037
1.28999
1.28962
1.28925
1.28889
1.28854
1.28819
1.28784
1.2875
1.28717
1.28684
1.28652
1.2862
1.28588
1.28558
1.28527
1.28497
1.28468
1.28439
1.28411
1.28382
1.28355
1.28328
1.28301
1.28275
1.28249
1.28223
1.28198
1.28174
1.28149
1.28125
1.28102
1.28079
1.28056
1.28033
1.28011
1.27989
1.27968
1.27947
1.27926
1.27906
1.27886
1.27866
1.27846
1.27827
1.27808
1.36851
1.36838
1.3684
1.36854
1.36872
1.36892
1.36909
1.36923
1.36931
1.36932
1.36924
1.36909
1.36884
1.36851
1.36808
1.36758
1.367
1.36634
1.36562
1.36483
1.36399
1.3631
1.36217
1.3612
1.36019
1.35916
1.35811
1.35703
1.35594
1.35484
1.35373
1.35261
1.35149
1.35037
1.34926
1.34814
1.34703
1.34592
1.34483
1.34374
1.34266
1.34159
1.34053
1.33948
1.33845
1.33742
1.33641
1.33542
1.33443
1.33346
1.3325
1.33156
1.33063
1.32971
1.32881
1.32792
1.32704
1.32618
1.32533
1.32449
1.32367
1.32286
1.32206
1.32127
1.3205
1.31974
1.31899
1.31825
1.31752
1.3168
1.3161
1.31541
1.31472
1.31405
1.31339
1.31274
1.3121
1.31146
1.31084
1.31023
1.30963
1.30903
1.30845
1.30787
1.3073
1.30675
1.3062
1.30565
1.30512
1.3046
1.30408
1.30357
1.30307
1.30257
1.30208
1.3016
1.30113
1.30067
1.30021
1.29976
1.29931
1.29887
1.29844
1.29801
1.2976
1.29718
1.29678
1.29637
1.29598
1.29559
1.29521
1.29483
1.29446
1.29409
1.29373
1.29337
1.29302
1.29268
1.29234
1.292
1.29167
1.29134
1.29102
1.29071
1.2904
1.29009
1.28979
1.28949
1.2892
1.28891
1.28862
1.28834
1.28806
1.28779
1.28752
1.28726
1.287
1.28674
1.28649
1.28624
1.28599
1.28575
1.28552
1.28528
1.28505
1.28482
1.2846
1.28438
1.28416
1.28394
1.36852
1.36839
1.36839
1.36848
1.36864
1.36882
1.369
1.36918
1.36932
1.36942
1.36948
1.36949
1.36943
1.36931
1.36913
1.36888
1.36856
1.36819
1.36775
1.36725
1.3667
1.36609
1.36544
1.36475
1.36401
1.36325
1.36244
1.36162
1.36076
1.35989
1.35899
1.35808
1.35716
1.35622
1.35528
1.35433
1.35338
1.35242
1.35146
1.3505
1.34954
1.34859
1.34764
1.34669
1.34575
1.34481
1.34388
1.34296
1.34204
1.34113
1.34023
1.33934
1.33846
1.33759
1.33672
1.33587
1.33503
1.33419
1.33337
1.33255
1.33175
1.33095
1.33016
1.32939
1.32862
1.32787
1.32712
1.32638
1.32565
1.32494
1.32423
1.32353
1.32284
1.32216
1.32149
1.32082
1.32017
1.31952
1.31889
1.31826
1.31764
1.31703
1.31643
1.31583
1.31524
1.31467
1.31409
1.31353
1.31298
1.31243
1.31189
1.31135
1.31083
1.31031
1.3098
1.30929
1.30879
1.3083
1.30782
1.30734
1.30687
1.3064
1.30594
1.30549
1.30504
1.3046
1.30417
1.30374
1.30332
1.3029
1.30249
1.30208
1.30168
1.30129
1.3009
1.30051
1.30014
1.29976
1.29939
1.29903
1.29867
1.29832
1.29797
1.29762
1.29729
1.29695
1.29662
1.2963
1.29597
1.29566
1.29535
1.29504
1.29473
1.29444
1.29414
1.29385
1.29356
1.29328
1.293
1.29272
1.29245
1.29219
1.29192
1.29166
1.29141
1.29116
1.29091
1.29066
1.29042
1.29018
1.36853
1.3684
1.36838
1.36844
1.36856
1.36872
1.36889
1.36906
1.36923
1.36938
1.3695
1.36959
1.36965
1.36967
1.36964
1.36957
1.36944
1.36927
1.36905
1.36878
1.36846
1.3681
1.36769
1.36724
1.36675
1.36622
1.36566
1.36507
1.36444
1.36379
1.36311
1.36241
1.36169
1.36095
1.3602
1.35943
1.35865
1.35786
1.35706
1.35626
1.35544
1.35463
1.35381
1.35298
1.35216
1.35133
1.35051
1.34969
1.34886
1.34804
1.34723
1.34642
1.34561
1.3448
1.344
1.34321
1.34242
1.34164
1.34086
1.34009
1.33932
1.33857
1.33781
1.33707
1.33633
1.3356
1.33488
1.33416
1.33345
1.33275
1.33206
1.33137
1.33069
1.33002
1.32935
1.3287
1.32805
1.3274
1.32677
1.32614
1.32552
1.3249
1.32429
1.32369
1.3231
1.32251
1.32193
1.32136
1.3208
1.32024
1.31968
1.31914
1.3186
1.31806
1.31754
1.31702
1.3165
1.316
1.31549
1.315
1.31451
1.31402
1.31355
1.31308
1.31261
1.31215
1.31169
1.31124
1.3108
1.31036
1.30993
1.3095
1.30908
1.30867
1.30825
1.30785
1.30745
1.30705
1.30666
1.30627
1.30589
1.30551
1.30514
1.30478
1.30441
1.30406
1.3037
1.30335
1.30301
1.30267
1.30233
1.302
1.30168
1.30135
1.30103
1.30072
1.30041
1.3001
1.2998
1.2995
1.29921
1.29892
1.29863
1.29835
1.29807
1.2978
1.29753
1.29726
1.29699
1.29673
1.36854
1.36841
1.36838
1.36841
1.3685
1.36863
1.36878
1.36894
1.3691
1.36926
1.36941
1.36954
1.36966
1.36975
1.36981
1.36985
1.36985
1.36982
1.36975
1.36965
1.36951
1.36933
1.36911
1.36886
1.36857
1.36825
1.36789
1.36751
1.36709
1.36664
1.36617
1.36567
1.36515
1.3646
1.36404
1.36345
1.36285
1.36224
1.3616
1.36096
1.36031
1.35964
1.35897
1.35828
1.35759
1.3569
1.3562
1.35549
1.35478
1.35407
1.35336
1.35265
1.35193
1.35122
1.3505
1.34979
1.34908
1.34837
1.34766
1.34695
1.34625
1.34555
1.34486
1.34416
1.34347
1.34279
1.34211
1.34143
1.34076
1.3401
1.33943
1.33878
1.33813
1.33748
1.33684
1.3362
1.33557
1.33495
1.33433
1.33371
1.3331
1.3325
1.3319
1.33131
1.33073
1.33015
1.32957
1.329
1.32844
1.32788
1.32733
1.32678
1.32624
1.32571
1.32518
1.32465
1.32413
1.32362
1.32311
1.32261
1.32211
1.32162
1.32113
1.32065
1.32017
1.3197
1.31924
1.31878
1.31832
1.31787
1.31742
1.31698
1.31655
1.31612
1.31569
1.31527
1.31485
1.31444
1.31403
1.31363
1.31323
1.31284
1.31245
1.31207
1.31169
1.31131
1.31094
1.31057
1.31021
1.30985
1.3095
1.30915
1.3088
1.30846
1.30812
1.30779
1.30746
1.30714
1.30682
1.3065
1.30618
1.30587
1.30557
1.30527
1.30497
1.30468
1.30439
1.3041
1.30382
1.30354
1.36854
1.36843
1.36838
1.36839
1.36846
1.36856
1.36868
1.36882
1.36897
1.36912
1.36927
1.36942
1.36955
1.36968
1.36979
1.36988
1.36996
1.37001
1.37004
1.37005
1.37003
1.36998
1.36991
1.3698
1.36967
1.36951
1.36932
1.3691
1.36886
1.36859
1.36829
1.36797
1.36762
1.36725
1.36686
1.36645
1.36602
1.36558
1.36511
1.36463
1.36413
1.36362
1.3631
1.36256
1.36201
1.36146
1.36089
1.36032
1.35973
1.35914
1.35855
1.35795
1.35734
1.35673
1.35612
1.3555
1.35489
1.35427
1.35364
1.35302
1.3524
1.35177
1.35115
1.35053
1.34991
1.34928
1.34866
1.34805
1.34743
1.34682
1.3462
1.3456
1.34499
1.34439
1.34378
1.34319
1.34259
1.342
1.34142
1.34083
1.34025
1.33968
1.3391
1.33854
1.33797
1.33741
1.33686
1.33631
1.33576
1.33522
1.33468
1.33414
1.33361
1.33309
1.33257
1.33205
1.33154
1.33103
1.33053
1.33003
1.32954
1.32905
1.32856
1.32808
1.3276
1.32713
1.32666
1.3262
1.32574
1.32529
1.32484
1.32439
1.32395
1.32352
1.32308
1.32266
1.32223
1.32181
1.3214
1.32099
1.32058
1.32018
1.31978
1.31938
1.31899
1.31861
1.31823
1.31785
1.31747
1.3171
1.31674
1.31638
1.31602
1.31566
1.31531
1.31497
1.31462
1.31428
1.31395
1.31362
1.31329
1.31297
1.31265
1.31233
1.31202
1.31171
1.31141
1.3111
1.31081
1.31052
1.36855
1.36844
1.36838
1.36838
1.36842
1.3685
1.3686
1.36872
1.36885
1.36898
1.36912
1.36927
1.3694
1.36954
1.36967
1.36979
1.3699
1.37
1.37009
1.37016
1.37021
1.37025
1.37027
1.37026
1.37024
1.3702
1.37013
1.37004
1.36993
1.3698
1.36964
1.36947
1.36927
1.36905
1.36881
1.36855
1.36827
1.36798
1.36766
1.36733
1.36698
1.36662
1.36624
1.36584
1.36544
1.36502
1.36459
1.36414
1.36369
1.36323
1.36276
1.36228
1.36179
1.36129
1.36079
1.36028
1.35977
1.35925
1.35873
1.3582
1.35767
1.35713
1.3566
1.35606
1.35552
1.35497
1.35443
1.35388
1.35334
1.35279
1.35224
1.3517
1.35115
1.3506
1.35006
1.34952
1.34897
1.34843
1.34789
1.34735
1.34682
1.34628
1.34575
1.34522
1.34469
1.34417
1.34365
1.34313
1.34261
1.3421
1.34158
1.34108
1.34057
1.34007
1.33957
1.33907
1.33858
1.33809
1.33761
1.33712
1.33664
1.33617
1.3357
1.33523
1.33476
1.3343
1.33384
1.33339
1.33294
1.33249
1.33205
1.33161
1.33117
1.33074
1.33031
1.32989
1.32946
1.32905
1.32863
1.32822
1.32781
1.32741
1.32701
1.32661
1.32622
1.32583
1.32545
1.32506
1.32469
1.32431
1.32394
1.32357
1.32321
1.32285
1.32249
1.32214
1.32179
1.32144
1.3211
1.32076
1.32042
1.32009
1.31976
1.31944
1.31912
1.3188
1.31849
1.31818
1.31787
1.31757
1.36855
1.36845
1.36839
1.36837
1.3684
1.36845
1.36853
1.36863
1.36874
1.36886
1.36899
1.36912
1.36925
1.36938
1.36951
1.36964
1.36977
1.36988
1.37
1.3701
1.3702
1.37028
1.37035
1.37041
1.37046
1.37049
1.3705
1.37051
1.37049
1.37046
1.37041
1.37034
1.37026
1.37015
1.37003
1.3699
1.36974
1.36957
1.36939
1.36918
1.36896
1.36873
1.36848
1.36821
1.36794
1.36764
1.36734
1.36702
1.36669
1.36635
1.366
1.36564
1.36527
1.36489
1.3645
1.3641
1.3637
1.36328
1.36286
1.36244
1.36201
1.36157
1.36113
1.36068
1.36023
1.35977
1.35932
1.35885
1.35839
1.35792
1.35745
1.35698
1.3565
1.35603
1.35555
1.35507
1.3546
1.35412
1.35364
1.35316
1.35268
1.3522
1.35172
1.35124
1.35076
1.35028
1.34981
1.34933
1.34886
1.34838
1.34791
1.34744
1.34697
1.34651
1.34604
1.34558
1.34512
1.34466
1.3442
1.34375
1.3433
1.34285
1.3424
1.34196
1.34151
1.34107
1.34064
1.3402
1.33977
1.33934
1.33891
1.33849
1.33807
1.33765
1.33723
1.33682
1.33641
1.336
1.3356
1.3352
1.3348
1.3344
1.33401
1.33362
1.33324
1.33285
1.33247
1.3321
1.33172
1.33135
1.33098
1.33062
1.33026
1.3299
1.32954
1.32919
1.32884
1.32849
1.32815
1.32781
1.32747
1.32714
1.32681
1.32648
1.32616
1.32584
1.32552
1.32521
1.3249
1.3246
1.36856
1.36846
1.3684
1.36837
1.36838
1.36842
1.36848
1.36856
1.36865
1.36875
1.36886
1.36898
1.3691
1.36923
1.36935
1.36948
1.3696
1.36973
1.36985
1.36996
1.37008
1.37018
1.37028
1.37038
1.37046
1.37054
1.3706
1.37066
1.3707
1.37074
1.37076
1.37076
1.37076
1.37074
1.37071
1.37066
1.3706
1.37053
1.37044
1.37034
1.37023
1.3701
1.36995
1.3698
1.36963
1.36945
1.36925
1.36905
1.36883
1.3686
1.36836
1.3681
1.36784
1.36757
1.36729
1.367
1.36669
1.36639
1.36607
1.36574
1.36541
1.36507
1.36473
1.36438
1.36402
1.36366
1.36329
1.36291
1.36254
1.36215
1.36177
1.36138
1.36098
1.36058
1.36018
1.35978
1.35938
1.35897
1.35856
1.35815
1.35773
1.35732
1.3569
1.35648
1.35607
1.35565
1.35523
1.35481
1.35439
1.35397
1.35355
1.35313
1.35271
1.35229
1.35187
1.35145
1.35103
1.35061