/*--------------------------------*- C++ -*----------------------------------*\
| =========                 |                                                 |
| \\      /  F ield         | OpenFOAM: The Open Source CFD Toolbox           |
|  \\    /   O peration     | Version:  5.x                                   |
|   \\  /    A nd           | Web:      www.OpenFOAM.org                      |
|    \\/     M anipulation  |                                                 |
\*---------------------------------------------------------------------------*/
FoamFile
{
    version     2.0;
    format      ascii;
    class       volScalarField;
    location    "0";
    object      nut;
}
// * * * * * * * * * * * * * * * * * * * * * * * * * * * * * * * * * * * * * //

dimensions      [0 2 -1 0 0 0 0];

internalField   nonuniform List<scalar> 
86400
(
0.0182849
0.00623287
0.00622183
0.00621995
0.00622087
0.00622284
0.00622518
0.00622762
0.00623005
0.00623241
0.00623468
0.00623685
0.00623892
0.00624088
0.00624276
0.00624454
0.00624624
0.00624785
0.0062494
0.00625087
0.00625228
0.00625362
0.00625491
0.00625615
0.00625733
0.00625847
0.00625956
0.00626062
0.00626163
0.00626261
0.00626356
0.00626447
0.00626535
0.00626621
0.00626704
0.00626784
0.00626862
0.00626938
0.00627011
0.00627083
0.00627153
0.0062722
0.00627286
0.00627351
0.00627414
0.00627475
0.00627535
0.00627593
0.0062765
0.00627706
0.00627761
0.00627814
0.00627866
0.00627917
0.00627967
0.00628017
0.00628065
0.00628112
0.00628158
0.00628203
0.00628247
0.00628291
0.00628333
0.00628375
0.00628416
0.00628456
0.00628496
0.00628535
0.00628573
0.0062861
0.00628646
0.00628682
0.00628718
0.00628752
0.00628786
0.00628819
0.00628852
0.00628884
0.00628916
0.00628947
0.00628977
0.00629007
0.00629036
0.00629064
0.00629093
0.0062912
0.00629147
0.00629174
0.006292
0.00629225
0.0062925
0.00629275
0.00629299
0.00629323
0.00629346
0.00629369
0.00629391
0.00629413
0.00629434
0.00629455
0.00629476
0.00629496
0.00629516
0.00629535
0.00629554
0.00629573
0.00629591
0.00629608
0.00629626
0.00629643
0.00629659
0.00629675
0.00629691
0.00629707
0.00629722
0.00629736
0.00629751
0.00629765
0.00629778
0.00629791
0.00629804
0.00629817
0.00629829
0.0062984
0.00629852
0.00629863
0.00629873
0.00629884
0.00629894
0.00629903
0.00629912
0.00629921
0.00629929
0.00629937
0.00629945
0.00629952
0.00629958
0.00629965
0.0062997
0.00629976
0.0062998
0.00629984
0.00629988
0.00629991
0.00629993
0.00629994
0.00629995
0.00629996
0.00629996
0.00629998
0.0475499
0.0306868
0.0301433
0.0298388
0.0296453
0.0295125
0.0294164
0.0293442
0.0292885
0.0292445
0.0292092
0.0291805
0.0291569
0.0291374
0.0291211
0.0291074
0.0290958
0.029086
0.0290777
0.0290707
0.0290647
0.0290596
0.0290553
0.0290516
0.0290485
0.0290459
0.0290437
0.0290418
0.0290403
0.0290391
0.0290382
0.0290374
0.0290368
0.0290365
0.0290362
0.0290361
0.0290361
0.0290362
0.0290364
0.0290367
0.0290371
0.0290375
0.029038
0.0290385
0.0290391
0.0290397
0.0290404
0.0290411
0.0290418
0.0290425
0.0290433
0.0290441
0.0290449
0.0290457
0.0290465
0.0290473
0.0290482
0.0290491
0.0290499
0.0290508
0.0290516
0.0290525
0.0290534
0.0290543
0.0290551
0.029056
0.0290569
0.0290577
0.0290586
0.0290594
0.0290603
0.0290612
0.029062
0.0290628
0.0290637
0.0290645
0.0290653
0.0290661
0.0290669
0.0290677
0.0290685
0.0290693
0.0290701
0.0290708
0.0290716
0.0290723
0.0290731
0.0290738
0.0290746
0.0290753
0.029076
0.0290767
0.0290774
0.0290781
0.0290788
0.0290794
0.0290801
0.0290807
0.0290814
0.029082
0.0290827
0.0290833
0.0290839
0.0290845
0.0290851
0.0290857
0.0290863
0.0290869
0.0290874
0.029088
0.0290886
0.0290891
0.0290897
0.0290902
0.0290907
0.0290912
0.0290917
0.0290922
0.0290927
0.0290932
0.0290937
0.0290942
0.0290946
0.0290951
0.0290955
0.029096
0.0290964
0.0290969
0.0290973
0.0290977
0.0290981
0.0290985
0.0290989
0.0290993
0.0290997
0.0291
0.0291004
0.0291008
0.0291011
0.0291015
0.0291018
0.0291021
0.0291025
0.0291028
0.0291031
0.0291035
0.0291038
0.0291041
0.0291043
0.0291045
0.0802437
0.0612066
0.060024
0.0592565
0.0586961
0.0582656
0.0579247
0.0576485
0.0574207
0.05723
0.0570684
0.05693
0.0568104
0.0567063
0.0566149
0.0565344
0.0564629
0.0563993
0.0563423
0.0562911
0.056245
0.0562032
0.0561654
0.056131
0.0560996
0.0560709
0.0560447
0.0560206
0.0559984
0.055978
0.0559591
0.0559417
0.0559256
0.0559106
0.0558967
0.0558838
0.0558718
0.0558606
0.0558502
0.0558405
0.0558314
0.0558229
0.0558149
0.0558074
0.0558004
0.0557939
0.0557877
0.055782
0.0557765
0.0557714
0.0557666
0.0557621
0.0557578
0.0557538
0.05575
0.0557465
0.0557431
0.05574
0.055737
0.0557341
0.0557315
0.055729
0.0557266
0.0557243
0.0557222
0.0557202
0.0557183
0.0557165
0.0557148
0.0557132
0.0557117
0.0557103
0.0557089
0.0557076
0.0557064
0.0557053
0.0557042
0.0557032
0.0557022
0.0557013
0.0557004
0.0556996
0.0556988
0.0556981
0.0556974
0.0556968
0.0556962
0.0556956
0.0556951
0.0556946
0.0556941
0.0556937
0.0556933
0.0556929
0.0556925
0.0556922
0.0556919
0.0556916
0.0556914
0.0556911
0.0556909
0.0556907
0.0556906
0.0556904
0.0556903
0.0556901
0.05569
0.05569
0.0556899
0.0556898
0.0556898
0.0556898
0.0556898
0.0556898
0.0556898
0.0556898
0.0556898
0.0556899
0.05569
0.05569
0.0556901
0.0556902
0.0556903
0.0556904
0.0556905
0.0556906
0.0556908
0.0556909
0.0556911
0.0556912
0.0556914
0.0556916
0.0556918
0.0556919
0.0556921
0.0556923
0.0556926
0.0556928
0.055693
0.0556932
0.0556935
0.0556937
0.055694
0.0556943
0.0556946
0.0556949
0.0556953
0.0556956
0.055696
0.0556964
0.11541
0.0957116
0.0944935
0.0935662
0.0927922
0.0921297
0.0915582
0.0910627
0.0906308
0.0902521
0.0899184
0.0896226
0.089359
0.0891231
0.088911
0.0887196
0.0885461
0.0883884
0.0882446
0.088113
0.0879923
0.0878813
0.087779
0.0876845
0.087597
0.0875158
0.0874404
0.0873701
0.0873046
0.0872435
0.0871862
0.0871326
0.0870823
0.0870351
0.0869906
0.0869488
0.0869093
0.0868721
0.0868369
0.0868036
0.0867721
0.0867422
0.0867139
0.086687
0.0866614
0.0866371
0.086614
0.0865919
0.0865709
0.0865509
0.0865318
0.0865135
0.0864961
0.0864794
0.0864634
0.0864481
0.0864334
0.0864193
0.0864058
0.0863929
0.0863805
0.0863685
0.086357
0.0863459
0.0863353
0.0863251
0.0863152
0.0863057
0.0862965
0.0862876
0.0862791
0.0862709
0.0862629
0.0862552
0.0862478
0.0862406
0.0862336
0.0862269
0.0862204
0.0862141
0.086208
0.0862021
0.0861963
0.0861908
0.0861854
0.0861802
0.0861751
0.0861702
0.0861655
0.0861609
0.0861564
0.0861521
0.0861478
0.0861438
0.0861398
0.0861359
0.0861322
0.0861286
0.0861251
0.0861217
0.0861183
0.0861151
0.086112
0.086109
0.086106
0.0861032
0.0861004
0.0860977
0.0860951
0.0860926
0.0860901
0.0860877
0.0860854
0.0860832
0.086081
0.0860789
0.0860769
0.0860749
0.086073
0.0860712
0.0860694
0.0860677
0.086066
0.0860644
0.0860628
0.0860613
0.0860598
0.0860584
0.0860571
0.0860558
0.0860545
0.0860533
0.0860521
0.086051
0.0860499
0.0860489
0.0860479
0.0860469
0.086046
0.0860452
0.0860443
0.0860436
0.0860428
0.0860422
0.0860415
0.086041
0.0860405
0.08604
0.0860397
0.0860397
0.153531
0.133163
0.132378
0.131671
0.130978
0.1303
0.129651
0.12904
0.128472
0.127948
0.127465
0.127021
0.126613
0.126238
0.125892
0.125573
0.125278
0.125005
0.124752
0.124517
0.124298
0.124095
0.123904
0.123726
0.12356
0.123404
0.123257
0.12312
0.12299
0.122868
0.122752
0.122643
0.12254
0.122443
0.122351
0.122263
0.12218
0.122101
0.122025
0.121954
0.121886
0.121821
0.121759
0.121699
0.121643
0.121588
0.121536
0.121487
0.121439
0.121393
0.12135
0.121307
0.121267
0.121228
0.121191
0.121155
0.12112
0.121086
0.121054
0.121023
0.120993
0.120964
0.120936
0.120909
0.120883
0.120857
0.120833
0.120809
0.120786
0.120764
0.120742
0.120721
0.120701
0.120681
0.120662
0.120644
0.120626
0.120608
0.120591
0.120574
0.120558
0.120543
0.120527
0.120513
0.120498
0.120484
0.12047
0.120457
0.120444
0.120431
0.120419
0.120407
0.120395
0.120384
0.120373
0.120362
0.120351
0.120341
0.120331
0.120321
0.120312
0.120302
0.120293
0.120284
0.120276
0.120267
0.120259
0.120251
0.120243
0.120235
0.120228
0.120221
0.120214
0.120207
0.1202
0.120193
0.120187
0.120181
0.120175
0.120169
0.120163
0.120157
0.120152
0.120146
0.120141
0.120136
0.120131
0.120126
0.120121
0.120117
0.120112
0.120108
0.120104
0.1201
0.120096
0.120092
0.120088
0.120084
0.120081
0.120077
0.120074
0.12007
0.120067
0.120064
0.120061
0.120058
0.120055
0.120053
0.120051
0.120049
0.19518
0.173645
0.17341
0.173139
0.17277
0.172308
0.171783
0.171224
0.170656
0.170094
0.169546
0.169019
0.168516
0.168038
0.167584
0.167156
0.166751
0.166368
0.166007
0.165667
0.165345
0.165041
0.164754
0.164482
0.164225
0.163982
0.163751
0.163532
0.163324
0.163126
0.162938
0.162759
0.162589
0.162427
0.162272
0.162125
0.161984
0.161849
0.16172
0.161596
0.161478
0.161365
0.161256
0.161152
0.161052
0.160956
0.160864
0.160775
0.160689
0.160607
0.160527
0.160451
0.160377
0.160306
0.160237
0.160171
0.160107
0.160045
0.159985
0.159926
0.15987
0.159816
0.159763
0.159712
0.159662
0.159614
0.159567
0.159522
0.159478
0.159435
0.159394
0.159353
0.159314
0.159276
0.159238
0.159202
0.159167
0.159132
0.159099
0.159066
0.159034
0.159003
0.158973
0.158944
0.158915
0.158887
0.158859
0.158833
0.158807
0.158781
0.158756
0.158732
0.158708
0.158685
0.158662
0.15864
0.158618
0.158597
0.158577
0.158556
0.158537
0.158517
0.158498
0.15848
0.158462
0.158444
0.158427
0.15841
0.158394
0.158378
0.158362
0.158346
0.158331
0.158317
0.158302
0.158288
0.158274
0.158261
0.158248
0.158235
0.158222
0.15821
0.158198
0.158186
0.158174
0.158163
0.158152
0.158141
0.158131
0.15812
0.15811
0.158101
0.158091
0.158082
0.158072
0.158063
0.158055
0.158046
0.158038
0.158029
0.158021
0.158014
0.158006
0.157999
0.157991
0.157984
0.157977
0.157971
0.157964
0.157959
0.240868
0.217633
0.217837
0.218022
0.218083
0.217989
0.217758
0.217419
0.217004
0.21654
0.216046
0.215539
0.215027
0.214519
0.214019
0.213532
0.213059
0.212602
0.212161
0.211737
0.21133
0.210939
0.210564
0.210205
0.209861
0.209531
0.209215
0.208913
0.208623
0.208346
0.208079
0.207824
0.207579
0.207344
0.207119
0.206902
0.206694
0.206494
0.206302
0.206117
0.205939
0.205767
0.205602
0.205443
0.205289
0.205141
0.204998
0.20486
0.204727
0.204598
0.204473
0.204353
0.204236
0.204123
0.204014
0.203908
0.203805
0.203705
0.203609
0.203515
0.203424
0.203336
0.20325
0.203166
0.203085
0.203006
0.20293
0.202855
0.202782
0.202711
0.202642
0.202575
0.20251
0.202446
0.202384
0.202323
0.202264
0.202206
0.20215
0.202094
0.202041
0.201988
0.201937
0.201887
0.201838
0.20179
0.201743
0.201697
0.201653
0.201609
0.201566
0.201524
0.201483
0.201443
0.201404
0.201365
0.201328
0.201291
0.201255
0.20122
0.201185
0.201152
0.201118
0.201086
0.201054
0.201023
0.200993
0.200963
0.200934
0.200905
0.200877
0.20085
0.200823
0.200796
0.200771
0.200745
0.200721
0.200696
0.200673
0.200649
0.200626
0.200604
0.200582
0.200561
0.20054
0.200519
0.200499
0.200479
0.20046
0.200441
0.200422
0.200404
0.200386
0.200369
0.200352
0.200335
0.200319
0.200302
0.200287
0.200271
0.200256
0.200241
0.200227
0.200212
0.200198
0.200185
0.200171
0.200158
0.200146
0.200134
0.291072
0.265694
0.266159
0.266688
0.26715
0.267467
0.267618
0.267614
0.26748
0.267243
0.266928
0.266554
0.26614
0.265697
0.265237
0.264767
0.264293
0.263819
0.26335
0.262887
0.262433
0.261989
0.261555
0.261133
0.260723
0.260325
0.25994
0.259566
0.259204
0.258854
0.258515
0.258187
0.25787
0.257564
0.257268
0.256981
0.256704
0.256437
0.256177
0.255927
0.255684
0.255449
0.255222
0.255002
0.254789
0.254582
0.254382
0.254188
0.254
0.253817
0.25364
0.253468
0.253301
0.253139
0.252982
0.252829
0.25268
0.252535
0.252394
0.252257
0.252124
0.251994
0.251868
0.251744
0.251624
0.251507
0.251393
0.251282
0.251174
0.251068
0.250964
0.250863
0.250765
0.250668
0.250574
0.250483
0.250393
0.250305
0.250219
0.250135
0.250053
0.249973
0.249894
0.249817
0.249742
0.249668
0.249596
0.249525
0.249456
0.249388
0.249322
0.249257
0.249193
0.249131
0.249069
0.249009
0.248951
0.248893
0.248836
0.248781
0.248727
0.248674
0.248621
0.24857
0.24852
0.248471
0.248422
0.248375
0.248329
0.248283
0.248238
0.248194
0.248151
0.248109
0.248068
0.248027
0.247987
0.247948
0.24791
0.247872
0.247835
0.247799
0.247764
0.247729
0.247695
0.247661
0.247628
0.247596
0.247564
0.247533
0.247502
0.247473
0.247443
0.247414
0.247386
0.247358
0.247331
0.247304
0.247278
0.247252
0.247227
0.247202
0.247177
0.247153
0.24713
0.247107
0.247084
0.247062
0.247041
0.24702
0.346274
0.318395
0.318965
0.319686
0.320434
0.321103
0.321635
0.322008
0.322226
0.322306
0.322267
0.322131
0.321915
0.321637
0.321309
0.320944
0.32055
0.320135
0.319706
0.319267
0.318823
0.318377
0.317931
0.317488
0.31705
0.316617
0.316191
0.315773
0.315363
0.314961
0.314568
0.314184
0.313809
0.313444
0.313087
0.31274
0.312401
0.312072
0.311751
0.311438
0.311134
0.310838
0.31055
0.310269
0.309996
0.30973
0.309472
0.30922
0.308974
0.308735
0.308502
0.308275
0.308054
0.307839
0.307629
0.307424
0.307224
0.307029
0.306839
0.306654
0.306473
0.306296
0.306123
0.305955
0.30579
0.305629
0.305472
0.305318
0.305167
0.30502
0.304877
0.304736
0.304598
0.304463
0.304332
0.304202
0.304076
0.303952
0.303831
0.303712
0.303596
0.303481
0.30337
0.30326
0.303153
0.303047
0.302944
0.302843
0.302743
0.302646
0.30255
0.302456
0.302364
0.302274
0.302185
0.302098
0.302013
0.301929
0.301847
0.301766
0.301687
0.301609
0.301533
0.301458
0.301384
0.301312
0.301241
0.301171
0.301102
0.301035
0.300969
0.300904
0.30084
0.300778
0.300716
0.300656
0.300596
0.300538
0.300481
0.300424
0.300369
0.300315
0.300261
0.300209
0.300158
0.300107
0.300057
0.300008
0.299961
0.299913
0.299867
0.299822
0.299777
0.299733
0.29969
0.299647
0.299606
0.299565
0.299524
0.299485
0.299446
0.299408
0.29937
0.299333
0.299296
0.299261
0.299226
0.299191
0.299157
0.299125
0.406988
0.376292
0.376872
0.37765
0.378541
0.379445
0.38028
0.380996
0.38157
0.382
0.382293
0.382463
0.382524
0.382493
0.382383
0.382206
0.381975
0.381698
0.381385
0.381042
0.380676
0.380292
0.379894
0.379485
0.37907
0.37865
0.378227
0.377805
0.377383
0.376964
0.376548
0.376136
0.37573
0.375329
0.374934
0.374545
0.374163
0.373787
0.373419
0.373058
0.372704
0.372357
0.372017
0.371684
0.371358
0.371038
0.370726
0.370421
0.370121
0.369829
0.369543
0.369262
0.368988
0.36872
0.368458
0.368201
0.367949
0.367703
0.367462
0.367226
0.366996
0.366769
0.366548
0.366331
0.366119
0.36591
0.365706
0.365507
0.365311
0.365119
0.36493
0.364746
0.364565
0.364387
0.364213
0.364042
0.363874
0.36371
0.363548
0.36339
0.363234
0.363082
0.362932
0.362784
0.36264
0.362498
0.362359
0.362222
0.362087
0.361955
0.361825
0.361697
0.361572
0.361449
0.361328
0.361209
0.361092
0.360977
0.360864
0.360753
0.360644
0.360536
0.360431
0.360327
0.360225
0.360125
0.360026
0.359929
0.359834
0.35974
0.359648
0.359557
0.359468
0.35938
0.359294
0.359209
0.359126
0.359044
0.358963
0.358884
0.358806
0.358729
0.358653
0.358579
0.358506
0.358434
0.358363
0.358294
0.358226
0.358158
0.358092
0.358027
0.357963
0.3579
0.357838
0.357777
0.357717
0.357658
0.3576
0.357543
0.357487
0.357431
0.357377
0.357323
0.35727
0.357218
0.357167
0.357116
0.357067
0.357019
0.473773
0.439952
0.440498
0.441247
0.442159
0.443165
0.444184
0.445151
0.446024
0.446777
0.447403
0.447902
0.44828
0.448548
0.448716
0.448795
0.448796
0.44873
0.448605
0.448429
0.448211
0.447956
0.44767
0.447358
0.447025
0.446675
0.44631
0.445933
0.445548
0.445157
0.44476
0.444361
0.443959
0.443557
0.443156
0.442756
0.442359
0.441964
0.441573
0.441185
0.440802
0.440423
0.440049
0.43968
0.439317
0.438958
0.438605
0.438258
0.437916
0.43758
0.437249
0.436923
0.436603
0.436289
0.43598
0.435676
0.435378
0.435084
0.434796
0.434513
0.434234
0.433961
0.433692
0.433428
0.433169
0.432914
0.432663
0.432417
0.432175
0.431937
0.431703
0.431473
0.431247
0.431025
0.430807
0.430592
0.430381
0.430173
0.429969
0.429768
0.429571
0.429376
0.429185
0.428997
0.428812
0.42863
0.428451
0.428275
0.428102
0.427931
0.427763
0.427598
0.427435
0.427275
0.427118
0.426963
0.42681
0.42666
0.426512
0.426366
0.426223
0.426082
0.425943
0.425806
0.425672
0.425539
0.425409
0.42528
0.425154
0.425029
0.424907
0.424786
0.424667
0.42455
0.424435
0.424321
0.424209
0.424099
0.423991
0.423884
0.423779
0.423675
0.423574
0.423473
0.423374
0.423277
0.423181
0.423087
0.422994
0.422903
0.422813
0.422724
0.422636
0.42255
0.422466
0.422382
0.4223
0.422219
0.422139
0.42206
0.421983
0.421906
0.421831
0.421757
0.421684
0.421612
0.421541
0.421471
0.421403
0.421336
0.547234
0.509971
0.510471
0.511152
0.512007
0.513003
0.514082
0.515184
0.516254
0.517256
0.518164
0.518965
0.519654
0.520233
0.520705
0.521077
0.521356
0.521552
0.521671
0.521723
0.521714
0.52165
0.521539
0.521386
0.521196
0.520975
0.520725
0.520451
0.520157
0.519845
0.519518
0.519178
0.518827
0.518468
0.518102
0.51773
0.517355
0.516976
0.516595
0.516213
0.515831
0.515449
0.515068
0.514688
0.514311
0.513935
0.513563
0.513193
0.512827
0.512464
0.512105
0.51175
0.511398
0.511051
0.510708
0.510369
0.510034
0.509703
0.509377
0.509055
0.508737
0.508423
0.508114
0.507809
0.507508
0.507211
0.506919
0.50663
0.506346
0.506065
0.505789
0.505516
0.505247
0.504983
0.504721
0.504464
0.50421
0.50396
0.503713
0.50347
0.503231
0.502995
0.502762
0.502532
0.502306
0.502083
0.501863
0.501646
0.501432
0.501221
0.501014
0.500809
0.500607
0.500408
0.500211
0.500018
0.499827
0.499639
0.499453
0.499271
0.49909
0.498913
0.498737
0.498565
0.498394
0.498226
0.498061
0.497897
0.497736
0.497578
0.497421
0.497267
0.497115
0.496965
0.496817
0.496671
0.496527
0.496386
0.496246
0.496108
0.495972
0.495838
0.495706
0.495576
0.495448
0.495321
0.495197
0.495074
0.494953
0.494833
0.494715
0.494599
0.494484
0.494372
0.49426
0.49415
0.494042
0.493935
0.49383
0.493726
0.493624
0.493523
0.493423
0.493325
0.493228
0.493132
0.493038
0.492945
0.492853
0.492764
0.62804
0.586992
0.587445
0.588053
0.588816
0.589731
0.590772
0.591893
0.593048
0.594194
0.595296
0.59633
0.597281
0.598139
0.598901
0.599566
0.600137
0.600617
0.601013
0.601329
0.601573
0.601749
0.601863
0.601922
0.601929
0.601891
0.601812
0.601696
0.601546
0.601367
0.601162
0.600933
0.600684
0.600416
0.600132
0.599834
0.599524
0.599204
0.598874
0.598537
0.598193
0.597844
0.59749
0.597133
0.596773
0.596411
0.596048
0.595684
0.59532
0.594955
0.594592
0.594229
0.593868
0.593508
0.59315
0.592794
0.59244
0.592089
0.59174
0.591394
0.591051
0.59071
0.590373
0.590039
0.589708
0.58938
0.589055
0.588734
0.588416
0.588101
0.587789
0.587481
0.587176
0.586875
0.586577
0.586282
0.585991
0.585703
0.585418
0.585137
0.584858
0.584583
0.584312
0.584043
0.583778
0.583516
0.583257
0.583001
0.582748
0.582498
0.582251
0.582007
0.581767
0.581529
0.581294
0.581062
0.580832
0.580606
0.580382
0.580161
0.579943
0.579728
0.579515
0.579305
0.579098
0.578893
0.57869
0.578491
0.578293
0.578099
0.577906
0.577716
0.577529
0.577344
0.577161
0.576981
0.576803
0.576627
0.576453
0.576282
0.576113
0.575946
0.575781
0.575618
0.575457
0.575299
0.575142
0.574988
0.574835
0.574684
0.574536
0.574389
0.574244
0.574101
0.57396
0.573821
0.573684
0.573548
0.573414
0.573282
0.573151
0.573022
0.572895
0.572769
0.572645
0.572522
0.572401
0.572282
0.572164
0.572048
0.716928
0.671719
0.67213
0.672675
0.673344
0.67415
0.675091
0.676146
0.677283
0.678464
0.679656
0.680829
0.68196
0.683031
0.68403
0.684951
0.685789
0.686544
0.687216
0.687807
0.688321
0.688761
0.689132
0.689437
0.689682
0.68987
0.690006
0.690093
0.690137
0.690139
0.690105
0.690037
0.689937
0.689809
0.689656
0.68948
0.689282
0.689066
0.688832
0.688583
0.68832
0.688045
0.687759
0.687463
0.687159
0.686847
0.686528
0.686203
0.685874
0.68554
0.685202
0.684862
0.684519
0.684174
0.683827
0.68348
0.683131
0.682782
0.682433
0.682085
0.681737
0.681389
0.681043
0.680697
0.680353
0.68001
0.679669
0.67933
0.678993
0.678657
0.678324
0.677993
0.677664
0.677337
0.677013
0.676692
0.676372
0.676056
0.675741
0.67543
0.675121
0.674815
0.674511
0.674211
0.673913
0.673617
0.673325
0.673035
0.672748
0.672464
0.672182
0.671904
0.671628
0.671354
0.671084
0.670816
0.670551
0.670289
0.67003
0.669773
0.669519
0.669267
0.669019
0.668772
0.668529
0.668288
0.66805
0.667814
0.667581
0.667351
0.667123
0.666897
0.666674
0.666454
0.666236
0.66602
0.665807
0.665596
0.665388
0.665182
0.664978
0.664777
0.664578
0.664381
0.664187
0.663995
0.663805
0.663617
0.663431
0.663248
0.663067
0.662888
0.662711
0.662536
0.662363
0.662192
0.662023
0.661856
0.661691
0.661528
0.661367
0.661208
0.66105
0.660895
0.660741
0.660589
0.660438
0.66029
0.660143
0.659998
0.814705
0.764922
0.765295
0.765787
0.766379
0.767078
0.767898
0.768838
0.769884
0.771012
0.772195
0.773405
0.774618
0.775812
0.77697
0.778079
0.779129
0.780114
0.781029
0.781873
0.782646
0.783347
0.783978
0.784542
0.785041
0.785478
0.785856
0.786179
0.78645
0.786671
0.786847
0.78698
0.787073
0.787128
0.787149
0.787138
0.787098
0.78703
0.786937
0.78682
0.786682
0.786524
0.786348
0.786155
0.785947
0.785725
0.78549
0.785244
0.784986
0.784719
0.784444
0.78416
0.783869
0.783572
0.783268
0.78296
0.782647
0.78233
0.782009
0.781685
0.781358
0.781029
0.780698
0.780365
0.780032
0.779697
0.779361
0.779025
0.778688
0.778351
0.778015
0.777679
0.777343
0.777008
0.776674
0.776341
0.776009
0.775678
0.775348
0.77502
0.774694
0.774369
0.774045
0.773724
0.773404
0.773086
0.77277
0.772456
0.772144
0.771834
0.771526
0.771221
0.770917
0.770616
0.770317
0.770021
0.769727
0.769435
0.769145
0.768858
0.768573
0.768291
0.768011
0.767733
0.767458
0.767185
0.766914
0.766646
0.766381
0.766118
0.765857
0.765598
0.765342
0.765089
0.764838
0.764589
0.764343
0.764099
0.763857
0.763618
0.763381
0.763146
0.762914
0.762684
0.762457
0.762231
0.762008
0.761788
0.761569
0.761353
0.761139
0.760927
0.760718
0.76051
0.760305
0.760102
0.759901
0.759702
0.759505
0.759311
0.759118
0.758927
0.758738
0.758552
0.758367
0.758184
0.758003
0.757823
0.757646
0.757471
0.922262
0.867453
0.86779
0.86824
0.868771
0.869384
0.870091
0.870903
0.871821
0.872838
0.873936
0.875097
0.876298
0.877521
0.878745
0.879956
0.881139
0.882284
0.883383
0.884429
0.885418
0.886348
0.887216
0.888023
0.888768
0.889453
0.890078
0.890647
0.891159
0.891619
0.892028
0.892388
0.892702
0.892973
0.893202
0.893392
0.893545
0.893663
0.893749
0.893805
0.893831
0.893831
0.893805
0.893756
0.893685
0.893593
0.893482
0.893353
0.893207
0.893046
0.89287
0.892681
0.892479
0.892265
0.892041
0.891807
0.891563
0.891311
0.891051
0.890784
0.89051
0.89023
0.889944
0.889653
0.889358
0.889058
0.888755
0.888447
0.888137
0.887824
0.887509
0.887191
0.886871
0.88655
0.886227
0.885904
0.885579
0.885253
0.884927
0.884601
0.884275
0.883948
0.883622
0.883295
0.88297
0.882644
0.88232
0.881996
0.881673
0.881351
0.88103
0.88071
0.880392
0.880075
0.879759
0.879444
0.879131
0.87882
0.87851
0.878202
0.877896
0.877591
0.877288
0.876987
0.876688
0.876391
0.876096
0.875803
0.875511
0.875222
0.874935
0.874649
0.874366
0.874085
0.873806
0.873529
0.873254
0.872982
0.872711
0.872443
0.872177
0.871913
0.871651
0.871391
0.871134
0.870878
0.870625
0.870374
0.870125
0.869879
0.869634
0.869392
0.869151
0.868913
0.868677
0.868444
0.868212
0.867982
0.867755
0.86753
0.867306
0.867085
0.866866
0.866648
0.866433
0.866219
0.866008
0.865798
0.86559
0.865385
1.04057
0.980241
0.980544
0.980958
0.981443
0.98199
0.982606
0.983303
0.984091
0.984973
0.985945
0.986996
0.988114
0.989283
0.990486
0.99171
0.992938
0.994159
0.995362
0.996538
0.997679
0.998779
0.999835
1.00084
1.0018
1.0027
1.00356
1.00436
1.0051
1.0058
1.00644
1.00703
1.00758
1.00808
1.00854
1.00895
1.00932
1.00965
1.00994
1.0102
1.01042
1.01061
1.01077
1.0109
1.011
1.01107
1.01112
1.01115
1.01115
1.01113
1.01109
1.01104
1.01096
1.01087
1.01076
1.01064
1.0105
1.01035
1.01018
1.01001
1.00982
1.00962
1.00941
1.0092
1.00897
1.00874
1.0085
1.00825
1.008
1.00773
1.00747
1.0072
1.00692
1.00664
1.00635
1.00607
1.00577
1.00548
1.00518
1.00488
1.00457
1.00427
1.00396
1.00365
1.00334
1.00303
1.00271
1.0024
1.00208
1.00177
1.00145
1.00114
1.00082
1.0005
1.00018
0.999868
0.999551
0.999235
0.99892
0.998604
0.99829
0.997977
0.997664
0.997352
0.997041
0.996731
0.996422
0.996115
0.995808
0.995503
0.9952
0.994897
0.994596
0.994297
0.993999
0.993703
0.993408
0.993115
0.992823
0.992533
0.992245
0.991959
0.991674
0.991391
0.99111
0.990831
0.990554
0.990278
0.990004
0.989733
0.989463
0.989195
0.988929
0.988664
0.988402
0.988142
0.987884
0.987627
0.987373
0.98712
0.986869
0.986621
0.986374
0.986129
0.985886
0.985644
0.985404
0.985166
0.98493
0.984697
1.17072
1.10431
1.10458
1.10496
1.10541
1.10591
1.10646
1.10707
1.10774
1.1085
1.10933
1.11025
1.11124
1.1123
1.11341
1.11457
1.11576
1.11698
1.1182
1.11942
1.12064
1.12183
1.12301
1.12415
1.12526
1.12634
1.12737
1.12836
1.12931
1.13021
1.13107
1.13189
1.13265
1.13338
1.13406
1.13469
1.13529
1.13584
1.13635
1.13682
1.13726
1.13766
1.13803
1.13836
1.13866
1.13892
1.13916
1.13937
1.13955
1.13971
1.13984
1.13994
1.14002
1.14009
1.14013
1.14015
1.14015
1.14013
1.1401
1.14005
1.13998
1.1399
1.1398
1.13969
1.13957
1.13944
1.13929
1.13914
1.13897
1.13879
1.13861
1.13841
1.13821
1.138
1.13778
1.13756
1.13732
1.13709
1.13684
1.13659
1.13634
1.13608
1.13582
1.13555
1.13528
1.135
1.13473
1.13444
1.13416
1.13387
1.13358
1.13329
1.133
1.1327
1.1324
1.1321
1.1318
1.1315
1.1312
1.13089
1.13059
1.13028
1.12998
1.12967
1.12937
1.12906
1.12875
1.12845
1.12814
1.12783
1.12753
1.12722
1.12692
1.12661
1.12631
1.12601
1.1257
1.1254
1.1251
1.1248
1.1245
1.1242
1.12391
1.12361
1.12332
1.12302
1.12273
1.12244
1.12215
1.12186
1.12158
1.12129
1.12101
1.12072
1.12044
1.12016
1.11989
1.11961
1.11933
1.11906
1.11879
1.11852
1.11825
1.11798
1.11772
1.11745
1.11719
1.11693
1.11667
1.11642
1.31388
1.2408
1.24103
1.24138
1.2418
1.24226
1.24276
1.24331
1.2439
1.24454
1.24526
1.24604
1.24689
1.24781
1.2488
1.24984
1.25094
1.25207
1.25324
1.25444
1.25564
1.25686
1.25807
1.25928
1.26047
1.26165
1.2628
1.26393
1.26503
1.26609
1.26712
1.26811
1.26907
1.26999
1.27087
1.27171
1.27251
1.27327
1.274
1.27469
1.27534
1.27595
1.27653
1.27707
1.27758
1.27805
1.27849
1.2789
1.27928
1.27963
1.27995
1.28024
1.28051
1.28075
1.28097
1.28116
1.28133
1.28148
1.2816
1.2817
1.28179
1.28186
1.2819
1.28193
1.28195
1.28194
1.28192
1.28189
1.28184
1.28178
1.28171
1.28162
1.28152
1.28141
1.28129
1.28116
1.28102
1.28087
1.28071
1.28055
1.28037
1.28019
1.28
1.2798
1.2796
1.27938
1.27917
1.27895
1.27872
1.27849
1.27825
1.27801
1.27776
1.27751
1.27725
1.277
1.27674
1.27647
1.2762
1.27593
1.27566
1.27539
1.27511
1.27483
1.27455
1.27426
1.27398
1.27369
1.27341
1.27312
1.27283
1.27254
1.27225
1.27195
1.27166
1.27137
1.27107
1.27078
1.27048
1.27019
1.26989
1.2696
1.26931
1.26901
1.26872
1.26842
1.26813
1.26784
1.26754
1.26725
1.26696
1.26667
1.26638
1.26609
1.2658
1.26551
1.26523
1.26494
1.26466
1.26437
1.26409
1.26381
1.26353
1.26325
1.26297
1.26269
1.26241
1.26214
1.26186
1.26159
1.47135
1.39093
1.39114
1.39145
1.39184
1.39227
1.39274
1.39324
1.39377
1.39434
1.39496
1.39562
1.39635
1.39713
1.39798
1.39889
1.39985
1.40087
1.40193
1.40303
1.40417
1.40533
1.40651
1.40771
1.40891
1.41011
1.41131
1.4125
1.41368
1.41484
1.41598
1.4171
1.41819
1.41926
1.42029
1.4213
1.42228
1.42322
1.42413
1.42501
1.42585
1.42666
1.42744
1.42818
1.42889
1.42957
1.43021
1.43082
1.43141
1.43196
1.43248
1.43297
1.43343
1.43387
1.43427
1.43465
1.43501
1.43534
1.43564
1.43593
1.43618
1.43642
1.43664
1.43683
1.437
1.43716
1.43729
1.43741
1.43751
1.43759
1.43766
1.43771
1.43775
1.43777
1.43777
1.43777
1.43775
1.43771
1.43767
1.43761
1.43754
1.43746
1.43738
1.43728
1.43717
1.43705
1.43693
1.43679
1.43665
1.4365
1.43634
1.43618
1.436
1.43583
1.43564
1.43545
1.43526
1.43505
1.43485
1.43464
1.43442
1.4342
1.43397
1.43375
1.43351
1.43328
1.43304
1.43279
1.43255
1.4323
1.43205
1.43179
1.43154
1.43128
1.43102
1.43075
1.43049
1.43022
1.42995
1.42968
1.42941
1.42914
1.42886
1.42859
1.42831
1.42803
1.42776
1.42748
1.4272
1.42692
1.42664
1.42636
1.42608
1.42579
1.42551
1.42523
1.42495
1.42467
1.42439
1.42411
1.42383
1.42354
1.42326
1.42298
1.4227
1.42242
1.42214
1.42186
1.42159
1.42131
1.64458
1.55609
1.55626
1.55654
1.5569
1.55731
1.55775
1.55822
1.55871
1.55923
1.55977
1.56036
1.56098
1.56165
1.56237
1.56314
1.56397
1.56485
1.56577
1.56675
1.56777
1.56883
1.56992
1.57104
1.57218
1.57334
1.57452
1.5757
1.57689
1.57807
1.57926
1.58043
1.5816
1.58275
1.58388
1.585
1.5861
1.58717
1.58822
1.58925
1.59024
1.59122
1.59216
1.59308
1.59396
1.59482
1.59565
1.59645
1.59722
1.59796
1.59867
1.59936
1.60001
1.60064
1.60124
1.60181
1.60236
1.60288
1.60337
1.60384
1.60429
1.60471
1.6051
1.60548
1.60583
1.60616
1.60647
1.60675
1.60702
1.60727
1.6075
1.60771
1.6079
1.60807
1.60823
1.60837
1.6085
1.60861
1.60871
1.60879
1.60885
1.60891
1.60895
1.60897
1.60899
1.60899
1.60898
1.60896
1.60893
1.60889
1.60884
1.60878
1.60871
1.60864
1.60855
1.60845
1.60835
1.60824
1.60812
1.60799
1.60786
1.60772
1.60757
1.60742
1.60726
1.6071
1.60693
1.60676
1.60658
1.60639
1.6062
1.60601
1.60581
1.60561
1.6054
1.60519
1.60498
1.60476
1.60454
1.60432
1.60409
1.60386
1.60363
1.60339
1.60315
1.60292
1.60267
1.60243
1.60218
1.60194
1.60169
1.60143
1.60118
1.60093
1.60067
1.60041
1.60016
1.5999
1.59964
1.59937
1.59911
1.59885
1.59858
1.59832
1.59805
1.59779
1.59752
1.59725
1.59699
1.59672
1.83512
1.73776
1.73791
1.73816
1.73849
1.73887
1.73929
1.73973
1.74019
1.74067
1.74118
1.7417
1.74225
1.74284
1.74346
1.74412
1.74482
1.74556
1.74636
1.7472
1.74808
1.749
1.74997
1.75097
1.75201
1.75307
1.75417
1.75528
1.75642
1.75756
1.75872
1.75989
1.76106
1.76223
1.76339
1.76455
1.76571
1.76685
1.76798
1.7691
1.7702
1.77128
1.77234
1.77338
1.7744
1.7754
1.77638
1.77733
1.77826
1.77916
1.78004
1.78089
1.78172
1.78252
1.7833
1.78405
1.78478
1.78548
1.78616
1.78681
1.78743
1.78804
1.78862
1.78917
1.78971
1.79022
1.7907
1.79117
1.79162
1.79204
1.79244
1.79283
1.79319
1.79354
1.79386
1.79417
1.79446
1.79473
1.79498
1.79522
1.79544
1.79565
1.79584
1.79602
1.79618
1.79633
1.79646
1.79658
1.79668
1.79678
1.79686
1.79693
1.79699
1.79703
1.79707
1.7971
1.79711
1.79711
1.79711
1.79709
1.79707
1.79704
1.797
1.79695
1.79689
1.79682
1.79675
1.79667
1.79658
1.79649
1.79638
1.79628
1.79616
1.79604
1.79591
1.79578
1.79565
1.7955
1.79535
1.7952
1.79504
1.79488
1.79471
1.79454
1.79437
1.79419
1.79401
1.79382
1.79363
1.79343
1.79324
1.79304
1.79283
1.79263