/*--------------------------------*- C++ -*----------------------------------*\
| =========                 |                                                 |
| \\      /  F ield         | OpenFOAM: The Open Source CFD Toolbox           |
|  \\    /   O peration     | Version:  5.x                                   |
|   \\  /    A nd           | Web:      www.OpenFOAM.org                      |
|    \\/     M anipulation  |                                                 |
\*---------------------------------------------------------------------------*/
FoamFile
{
    version     2.0;
    format      ascii;
    class       volVectorField;
    location    "0";
    object      U;
}
// * * * * * * * * * * * * * * * * * * * * * * * * * * * * * * * * * * * * * //

dimensions      [0 1 -1 0 0 0 0];

internalField   nonuniform List<vector> 
86400
(
(3.33856 0 0.0066118)
(1.82084 0 9.98272e-06)
(1.82124 0 4.30475e-05)
(1.82187 0 2.28477e-05)
(1.82276 0 1.29797e-05)
(1.82371 0 7.70352e-06)
(1.82464 0 4.5967e-06)
(1.82553 0 2.64281e-06)
(1.82637 0 1.36369e-06)
(1.82716 0 5.00454e-07)
(1.8279 0 -9.52689e-08)
(1.82859 0 -5.28974e-07)
(1.82924 0 -8.45032e-07)
(1.82986 0 -1.06953e-06)
(1.83044 0 -1.22831e-06)
(1.83099 0 -1.33843e-06)
(1.83151 0 -1.41362e-06)
(1.832 0 -1.46306e-06)
(1.83247 0 -1.49306e-06)
(1.83291 0 -1.50795e-06)
(1.83333 0 -1.51207e-06)
(1.83374 0 -1.50787e-06)
(1.83412 0 -1.49767e-06)
(1.83449 0 -1.48247e-06)
(1.83484 0 -1.46391e-06)
(1.83518 0 -1.44304e-06)
(1.8355 0 -1.42059e-06)
(1.83582 0 -1.39649e-06)
(1.83612 0 -1.37177e-06)
(1.83641 0 -1.34679e-06)
(1.83669 0 -1.32182e-06)
(1.83695 0 -1.29651e-06)
(1.83722 0 -1.27152e-06)
(1.83747 0 -1.24699e-06)
(1.83771 0 -1.2231e-06)
(1.83795 0 -1.19916e-06)
(1.83818 0 -1.17589e-06)
(1.8384 0 -1.1533e-06)
(1.83862 0 -1.13144e-06)
(1.83883 0 -1.10972e-06)
(1.83903 0 -1.08868e-06)
(1.83923 0 -1.06833e-06)
(1.83942 0 -1.04882e-06)
(1.83961 0 -1.02923e-06)
(1.8398 0 -1.01032e-06)
(1.83998 0 -9.92076e-07)
(1.84015 0 -9.74457e-07)
(1.84032 0 -9.56896e-07)
(1.84049 0 -9.39826e-07)
(1.84066 0 -9.23345e-07)
(1.84082 0 -9.0755e-07)
(1.84097 0 -8.91522e-07)
(1.84113 0 -8.76022e-07)
(1.84128 0 -8.60999e-07)
(1.84142 0 -8.46478e-07)
(1.84157 0 -8.31851e-07)
(1.84171 0 -8.17619e-07)
(1.84184 0 -8.03786e-07)
(1.84198 0 -7.90512e-07)
(1.84211 0 -7.76908e-07)
(1.84224 0 -7.63692e-07)
(1.84237 0 -7.50908e-07)
(1.84249 0 -7.3847e-07)
(1.84262 0 -7.25845e-07)
(1.84274 0 -7.13527e-07)
(1.84286 0 -7.01536e-07)
(1.84297 0 -6.90009e-07)
(1.84308 0 -6.78099e-07)
(1.8432 0 -6.66543e-07)
(1.8433 0 -6.55308e-07)
(1.84341 0 -6.44404e-07)
(1.84352 0 -6.33287e-07)
(1.84362 0 -6.22404e-07)
(1.84372 0 -6.11804e-07)
(1.84382 0 -6.01641e-07)
(1.84392 0 -5.91077e-07)
(1.84401 0 -5.80826e-07)
(1.84411 0 -5.70823e-07)
(1.8442 0 -5.6114e-07)
(1.84429 0 -5.51248e-07)
(1.84438 0 -5.41572e-07)
(1.84446 0 -5.32138e-07)
(1.84455 0 -5.23073e-07)
(1.84463 0 -5.13635e-07)
(1.84472 0 -5.0447e-07)
(1.8448 0 -4.95571e-07)
(1.84488 0 -4.86914e-07)
(1.84495 0 -4.7803e-07)
(1.84503 0 -4.69367e-07)
(1.8451 0 -4.60908e-07)
(1.84518 0 -4.52729e-07)
(1.84525 0 -4.44269e-07)
(1.84532 0 -4.36012e-07)
(1.84539 0 -4.27972e-07)
(1.84546 0 -4.20095e-07)
(1.84552 0 -4.1215e-07)
(1.84559 0 -4.04246e-07)
(1.84565 0 -3.96589e-07)
(1.84571 0 -3.89067e-07)
(1.84577 0 -3.81452e-07)
(1.84583 0 -3.73891e-07)
(1.84589 0 -3.66592e-07)
(1.84595 0 -3.5926e-07)
(1.84601 0 -3.51969e-07)
(1.84606 0 -3.44699e-07)
(1.84611 0 -3.3762e-07)
(1.84617 0 -3.30522e-07)
(1.84622 0 -3.2351e-07)
(1.84627 0 -3.16438e-07)
(1.84632 0 -3.09606e-07)
(1.84636 0 -3.02614e-07)
(1.84641 0 -2.95862e-07)
(1.84646 0 -2.88932e-07)
(1.8465 0 -2.82274e-07)
(1.84654 0 -2.75288e-07)
(1.84659 0 -2.68725e-07)
(1.84663 0 -2.6187e-07)
(1.84667 0 -2.55334e-07)
(1.84671 0 -2.48364e-07)
(1.84674 0 -2.41924e-07)
(1.84678 0 -2.34997e-07)
(1.84682 0 -2.28553e-07)
(1.84685 0 -2.21393e-07)
(1.84688 0 -2.15036e-07)
(1.84692 0 -2.07995e-07)
(1.84695 0 -2.01478e-07)
(1.84698 0 -1.94096e-07)
(1.84701 0 -1.87611e-07)
(1.84703 0 -1.80232e-07)
(1.84706 0 -1.73538e-07)
(1.84709 0 -1.65567e-07)
(1.84711 0 -1.58767e-07)
(1.84713 0 -1.50745e-07)
(1.84716 0 -1.4343e-07)
(1.84718 0 -1.34565e-07)
(1.8472 0 -1.26833e-07)
(1.84721 0 -1.17448e-07)
(1.84723 0 -1.08764e-07)
(1.84724 0 -9.78706e-08)
(1.84726 0 -8.8225e-08)
(1.84727 0 -7.62158e-08)
(1.84728 0 -6.47938e-08)
(1.84729 0 -5.06918e-08)
(1.84729 0 -3.74987e-08)
(1.8473 0 -2.042e-08)
(1.8473 0 3.3316e-09)
(1.8473 0 5.5599e-08)
(1.8473 0 1.78607e-07)
(1.84729 0 5.02217e-07)
(1.8473 0 1.22102e-06)
(4.641 0 0.00414427)
(4.14413 0 -0.000317384)
(4.15975 0 -0.000338234)
(4.17117 0 -0.000267001)
(4.17986 0 -0.000219221)
(4.18677 0 -0.000184713)
(4.19245 0 -0.000158981)
(4.19724 0 -0.000139226)
(4.20137 0 -0.000123636)
(4.20498 0 -0.000111019)
(4.20817 0 -0.000100593)
(4.21103 0 -9.18262e-05)
(4.21362 0 -8.43487e-05)
(4.21597 0 -7.78876e-05)
(4.21812 0 -7.22451e-05)
(4.22009 0 -6.7273e-05)
(4.22192 0 -6.28616e-05)
(4.22362 0 -5.89234e-05)
(4.22519 0 -5.53877e-05)
(4.22667 0 -5.21986e-05)
(4.22805 0 -4.93112e-05)
(4.22935 0 -4.66866e-05)
(4.23058 0 -4.42945e-05)
(4.23173 0 -4.21063e-05)
(4.23283 0 -4.01001e-05)
(4.23387 0 -3.82562e-05)
(4.23485 0 -3.65577e-05)
(4.23579 0 -3.49885e-05)
(4.23669 0 -3.35366e-05)
(4.23754 0 -3.21904e-05)
(4.23836 0 -3.09401e-05)
(4.23915 0 -2.97756e-05)
(4.2399 0 -2.86898e-05)
(4.24062 0 -2.76756e-05)
(4.24132 0 -2.67268e-05)
(4.24199 0 -2.58367e-05)
(4.24264 0 -2.50009e-05)
(4.24326 0 -2.4215e-05)
(4.24387 0 -2.34749e-05)
(4.24445 0 -2.27759e-05)
(4.24502 0 -2.21154e-05)
(4.24557 0 -2.14903e-05)
(4.2461 0 -2.08982e-05)
(4.24661 0 -2.03351e-05)
(4.24711 0 -1.97999e-05)
(4.2476 0 -1.92903e-05)
(4.24808 0 -1.88047e-05)
(4.24854 0 -1.83403e-05)
(4.24899 0 -1.78962e-05)
(4.24942 0 -1.74711e-05)
(4.24985 0 -1.70638e-05)
(4.25027 0 -1.66718e-05)
(4.25067 0 -1.62951e-05)
(4.25107 0 -1.59326e-05)
(4.25146 0 -1.55834e-05)
(4.25184 0 -1.52457e-05)
(4.25221 0 -1.49196e-05)
(4.25257 0 -1.46042e-05)
(4.25292 0 -1.42994e-05)
(4.25327 0 -1.4003e-05)
(4.25361 0 -1.37156e-05)
(4.25394 0 -1.34366e-05)
(4.25426 0 -1.31658e-05)
(4.25458 0 -1.29017e-05)
(4.25489 0 -1.26446e-05)
(4.25519 0 -1.23942e-05)
(4.25549 0 -1.21506e-05)
(4.25578 0 -1.19121e-05)
(4.25607 0 -1.16794e-05)
(4.25635 0 -1.14522e-05)
(4.25662 0 -1.12304e-05)
(4.25689 0 -1.10129e-05)
(4.25716 0 -1.08002e-05)
(4.25741 0 -1.05922e-05)
(4.25767 0 -1.03889e-05)
(4.25791 0 -1.0189e-05)
(4.25816 0 -9.99312e-06)
(4.2584 0 -9.80124e-06)
(4.25863 0 -9.61336e-06)
(4.25886 0 -9.42847e-06)
(4.25908 0 -9.24711e-06)
(4.2593 0 -9.06914e-06)
(4.25952 0 -8.89474e-06)
(4.25973 0 -8.72274e-06)
(4.25994 0 -8.55384e-06)
(4.26014 0 -8.38797e-06)
(4.26034 0 -8.22504e-06)
(4.26054 0 -8.06438e-06)
(4.26073 0 -7.90632e-06)
(4.26092 0 -7.75095e-06)
(4.2611 0 -7.59822e-06)
(4.26128 0 -7.44728e-06)
(4.26146 0 -7.29864e-06)
(4.26163 0 -7.15233e-06)
(4.2618 0 -7.00827e-06)
(4.26196 0 -6.86586e-06)
(4.26213 0 -6.72535e-06)
(4.26229 0 -6.58686e-06)
(4.26244 0 -6.45025e-06)
(4.26259 0 -6.31513e-06)
(4.26274 0 -6.18152e-06)
(4.26289 0 -6.04969e-06)
(4.26303 0 -5.91925e-06)
(4.26317 0 -5.79014e-06)
(4.26331 0 -5.66227e-06)
(4.26344 0 -5.53587e-06)
(4.26357 0 -5.4105e-06)
(4.2637 0 -5.28639e-06)
(4.26382 0 -5.16307e-06)
(4.26394 0 -5.04108e-06)
(4.26406 0 -4.91959e-06)
(4.26418 0 -4.79934e-06)
(4.26429 0 -4.67946e-06)
(4.2644 0 -4.56067e-06)
(4.26451 0 -4.44191e-06)
(4.26461 0 -4.32434e-06)
(4.26471 0 -4.2067e-06)
(4.26481 0 -4.08997e-06)
(4.26491 0 -3.9728e-06)
(4.265 0 -3.85661e-06)
(4.26509 0 -3.73982e-06)
(4.26518 0 -3.62374e-06)
(4.26526 0 -3.50646e-06)
(4.26534 0 -3.3902e-06)
(4.26542 0 -3.27253e-06)
(4.2655 0 -3.15524e-06)
(4.26557 0 -3.03584e-06)
(4.26564 0 -2.91706e-06)
(4.26571 0 -2.79574e-06)
(4.26577 0 -2.67413e-06)
(4.26584 0 -2.5488e-06)
(4.2659 0 -2.42328e-06)
(4.26595 0 -2.29334e-06)
(4.266 0 -2.16147e-06)
(4.26605 0 -2.02337e-06)
(4.2661 0 -1.88241e-06)
(4.26614 0 -1.73337e-06)
(4.26618 0 -1.57859e-06)
(4.26622 0 -1.41233e-06)
(4.26625 0 -1.23851e-06)
(4.26627 0 -1.05028e-06)
(4.2663 0 -8.51117e-07)
(4.26631 0 -6.36224e-07)
(4.26633 0 -4.1342e-07)
(4.26633 0 -1.75907e-07)
(4.26634 0 6.03966e-08)
(4.26633 0 2.80122e-07)
(4.26633 0 5.16702e-07)
(4.26632 0 6.73706e-07)
(4.26633 0 -1.99961e-07)
(5.38156 0 0.00134796)
(5.08499 0 -0.00168959)
(5.11022 0 -0.00137714)
(5.12928 0 -0.00105166)
(5.14426 0 -0.000833332)
(5.15635 0 -0.000681782)
(5.16635 0 -0.000572188)
(5.1748 0 -0.000490071)
(5.18205 0 -0.000426678)
(5.18837 0 -0.000376441)
(5.19393 0 -0.000335746)
(5.19888 0 -0.000302154)
(5.20332 0 -0.000273994)
(5.20734 0 -0.000250059)
(5.21099 0 -0.000229475)
(5.21433 0 -0.000211598)
(5.21739 0 -0.000195943)
(5.22022 0 -0.000182134)
(5.22284 0 -0.000169875)
(5.22527 0 -0.000158933)
(5.22754 0 -0.000149118)
(5.22966 0 -0.000140277)
(5.23165 0 -0.000132284)
(5.23351 0 -0.000125029)
(5.23527 0 -0.000118425)
(5.23693 0 -0.000112396)
(5.2385 0 -0.000106877)
(5.23999 0 -0.000101811)
(5.2414 0 -9.71496e-05)
(5.24274 0 -9.28511e-05)
(5.24402 0 -8.88791e-05)
(5.24524 0 -8.51995e-05)
(5.24641 0 -8.17847e-05)
(5.24753 0 -7.86096e-05)
(5.2486 0 -7.56523e-05)
(5.24962 0 -7.2891e-05)
(5.25061 0 -7.03091e-05)
(5.25156 0 -6.78908e-05)
(5.25248 0 -6.56223e-05)
(5.25336 0 -6.34891e-05)
(5.25421 0 -6.14808e-05)
(5.25503 0 -5.95873e-05)
(5.25582 0 -5.77996e-05)
(5.25659 0 -5.61071e-05)
(5.25734 0 -5.45038e-05)
(5.25806 0 -5.29826e-05)
(5.25876 0 -5.15375e-05)
(5.25944 0 -5.01613e-05)
(5.2601 0 -4.88495e-05)
(5.26074 0 -4.75978e-05)
(5.26136 0 -4.64022e-05)
(5.26197 0 -4.52567e-05)
(5.26256 0 -4.41589e-05)
(5.26314 0 -4.31057e-05)
(5.2637 0 -4.20943e-05)
(5.26425 0 -4.11204e-05)
(5.26478 0 -4.01824e-05)
(5.2653 0 -3.92781e-05)
(5.26581 0 -3.84059e-05)
(5.2663 0 -3.75619e-05)
(5.26679 0 -3.67454e-05)
(5.26726 0 -3.59551e-05)
(5.26772 0 -3.51895e-05)
(5.26817 0 -3.4446e-05)
(5.26861 0 -3.37241e-05)
(5.26905 0 -3.30227e-05)
(5.26947 0 -3.23414e-05)
(5.26988 0 -3.16771e-05)
(5.27029 0 -3.10303e-05)
(5.27068 0 -3.04002e-05)
(5.27107 0 -2.97861e-05)
(5.27145 0 -2.91862e-05)
(5.27182 0 -2.86004e-05)
(5.27218 0 -2.80284e-05)
(5.27254 0 -2.74701e-05)
(5.27288 0 -2.69231e-05)
(5.27323 0 -2.6388e-05)
(5.27356 0 -2.58646e-05)
(5.27389 0 -2.53525e-05)
(5.27421 0 -2.48502e-05)
(5.27452 0 -2.4358e-05)
(5.27483 0 -2.38757e-05)
(5.27513 0 -2.34033e-05)
(5.27542 0 -2.29389e-05)
(5.27571 0 -2.24833e-05)
(5.27599 0 -2.20362e-05)
(5.27627 0 -2.15975e-05)
(5.27654 0 -2.11659e-05)
(5.27681 0 -2.07417e-05)
(5.27707 0 -2.0325e-05)
(5.27732 0 -1.99156e-05)
(5.27757 0 -1.9512e-05)
(5.27782 0 -1.91149e-05)
(5.27806 0 -1.87243e-05)
(5.27829 0 -1.83397e-05)
(5.27852 0 -1.79605e-05)
(5.27875 0 -1.75866e-05)
(5.27896 0 -1.72182e-05)
(5.27918 0 -1.68551e-05)
(5.27939 0 -1.64964e-05)
(5.2796 0 -1.61422e-05)
(5.2798 0 -1.57927e-05)
(5.27999 0 -1.54473e-05)
(5.28019 0 -1.51058e-05)
(5.28038 0 -1.47679e-05)
(5.28056 0 -1.44339e-05)
(5.28074 0 -1.41032e-05)
(5.28091 0 -1.37758e-05)
(5.28109 0 -1.34511e-05)
(5.28125 0 -1.31296e-05)
(5.28142 0 -1.28103e-05)
(5.28158 0 -1.24939e-05)
(5.28173 0 -1.21793e-05)
(5.28188 0 -1.18672e-05)
(5.28203 0 -1.15563e-05)
(5.28217 0 -1.12478e-05)
(5.28231 0 -1.09401e-05)
(5.28245 0 -1.06343e-05)
(5.28258 0 -1.03285e-05)
(5.28271 0 -1.00246e-05)
(5.28283 0 -9.72019e-06)
(5.28295 0 -9.41704e-06)
(5.28307 0 -9.11228e-06)
(5.28318 0 -8.80889e-06)
(5.28329 0 -8.50345e-06)
(5.2834 0 -8.19809e-06)
(5.2835 0 -7.88926e-06)
(5.2836 0 -7.58036e-06)
(5.28369 0 -7.26696e-06)
(5.28378 0 -6.95171e-06)
(5.28387 0 -6.6295e-06)
(5.28395 0 -6.30475e-06)
(5.28403 0 -5.97117e-06)
(5.2841 0 -5.63147e-06)
(5.28417 0 -5.27884e-06)
(5.28424 0 -4.91704e-06)
(5.2843 0 -4.53766e-06)
(5.28435 0 -4.14256e-06)
(5.2844 0 -3.72199e-06)
(5.28445 0 -3.27959e-06)
(5.28449 0 -2.80436e-06)
(5.28453 0 -2.29943e-06)
(5.28455 0 -1.75801e-06)
(5.28458 0 -1.19292e-06)
(5.28459 0 -6.01745e-07)
(5.2846 0 -1.26503e-08)
(5.2846 0 4.63055e-07)
(5.2846 0 7.75225e-07)
(5.28459 0 3.53858e-07)
(5.28461 0 -3.70073e-06)
(5.92382 0 -0.00016407)
(5.69556 0 -0.00338121)
(5.71994 0 -0.00280169)
(5.74077 0 -0.00220269)
(5.75829 0 -0.00177391)
(5.77309 0 -0.00146452)
(5.78573 0 -0.00123478)
(5.79664 0 -0.0010594)
(5.80618 0 -0.000922246)
(5.81458 0 -0.000812595)
(5.82206 0 -0.000723256)
(5.82875 0 -0.000649254)
(5.8348 0 -0.000587091)
(5.84028 0 -0.000534213)
(5.84528 0 -0.000488746)
(5.84986 0 -0.000449287)
(5.85408 0 -0.00041477)
(5.85797 0 -0.000384363)
(5.86158 0 -0.00035741)
(5.86493 0 -0.000333391)
(5.86806 0 -0.000311884)
(5.87098 0 -0.000292543)
(5.87372 0 -0.000275086)
(5.87629 0 -0.000259269)
(5.87871 0 -0.000244897)
(5.88099 0 -0.000231796)
(5.88314 0 -0.000219824)
(5.88518 0 -0.000208852)
(5.88712 0 -0.000198775)
(5.88896 0 -0.000189497)
(5.8907 0 -0.000180938)
(5.89237 0 -0.000173022)
(5.89396 0 -0.000165689)
(5.89548 0 -0.000158882)
(5.89693 0 -0.000152552)
(5.89832 0 -0.000146652)
(5.89966 0 -0.000141146)
(5.90094 0 -0.000135997)
(5.90218 0 -0.000131175)
(5.90336 0 -0.00012665)
(5.90451 0 -0.000122398)
(5.90561 0 -0.000118396)
(5.90667 0 -0.000114624)
(5.9077 0 -0.000111062)
(5.90869 0 -0.000107693)
(5.90965 0 -0.000104503)
(5.91058 0 -0.000101478)
(5.91149 0 -9.86038e-05)
(5.91236 0 -9.58703e-05)
(5.91321 0 -9.32671e-05)
(5.91403 0 -9.07852e-05)
(5.91483 0 -8.84137e-05)
(5.91561 0 -8.61459e-05)
(5.91637 0 -8.39748e-05)
(5.9171 0 -8.1894e-05)
(5.91782 0 -7.98959e-05)
(5.91852 0 -7.79757e-05)
(5.9192 0 -7.61285e-05)
(5.91986 0 -7.43503e-05)
(5.92051 0 -7.26345e-05)
(5.92114 0 -7.09784e-05)
(5.92175 0 -6.93787e-05)
(5.92235 0 -6.78322e-05)
(5.92294 0 -6.63343e-05)
(5.92351 0 -6.48831e-05)
(5.92407 0 -6.34761e-05)
(5.92461 0 -6.21116e-05)
(5.92515 0 -6.07851e-05)
(5.92567 0 -5.94959e-05)
(5.92618 0 -5.82423e-05)
(5.92668 0 -5.70228e-05)
(5.92717 0 -5.58343e-05)
(5.92764 0 -5.4676e-05)
(5.92811 0 -5.35469e-05)
(5.92856 0 -5.24461e-05)
(5.92901 0 -5.13705e-05)
(5.92945 0 -5.032e-05)
(5.92988 0 -4.92938e-05)
(5.93029 0 -4.82912e-05)
(5.9307 0 -4.73098e-05)
(5.9311 0 -4.63496e-05)
(5.9315 0 -4.54098e-05)
(5.93188 0 -4.44902e-05)
(5.93226 0 -4.35884e-05)
(5.93263 0 -4.27045e-05)
(5.93299 0 -4.18381e-05)
(5.93334 0 -4.09888e-05)
(5.93369 0 -4.01548e-05)
(5.93402 0 -3.93361e-05)
(5.93436 0 -3.85324e-05)
(5.93468 0 -3.77434e-05)
(5.935 0 -3.69674e-05)
(5.93531 0 -3.62044e-05)
(5.93561 0 -3.54543e-05)
(5.93591 0 -3.47166e-05)
(5.9362 0 -3.39902e-05)
(5.93649 0 -3.32748e-05)
(5.93677 0 -3.25704e-05)
(5.93704 0 -3.18765e-05)
(5.93731 0 -3.11922e-05)
(5.93757 0 -3.0517e-05)
(5.93783 0 -2.98512e-05)
(5.93808 0 -2.9194e-05)
(5.93832 0 -2.85448e-05)
(5.93856 0 -2.79032e-05)
(5.93879 0 -2.72694e-05)
(5.93902 0 -2.66423e-05)
(5.93924 0 -2.60221e-05)
(5.93946 0 -2.54078e-05)
(5.93968 0 -2.47999e-05)
(5.93988 0 -2.41969e-05)
(5.94009 0 -2.35997e-05)
(5.94028 0 -2.30066e-05)
(5.94048 0 -2.24186e-05)
(5.94066 0 -2.18337e-05)
(5.94085 0 -2.12534e-05)
(5.94102 0 -2.06756e-05)
(5.9412 0 -2.01015e-05)
(5.94137 0 -1.95286e-05)
(5.94153 0 -1.8959e-05)
(5.94169 0 -1.83898e-05)
(5.94184 0 -1.78228e-05)
(5.94199 0 -1.72546e-05)
(5.94214 0 -1.66881e-05)
(5.94228 0 -1.61196e-05)
(5.94241 0 -1.5551e-05)
(5.94255 0 -1.49781e-05)
(5.94267 0 -1.44042e-05)
(5.94279 0 -1.38242e-05)
(5.94291 0 -1.32405e-05)
(5.94302 0 -1.26469e-05)
(5.94313 0 -1.20475e-05)
(5.94323 0 -1.14349e-05)
(5.94333 0 -1.08109e-05)
(5.94342 0 -1.01669e-05)
(5.94351 0 -9.50564e-06)
(5.94359 0 -8.81622e-06)
(5.94367 0 -8.09852e-06)
(5.94374 0 -7.33945e-06)
(5.94381 0 -6.54016e-06)
(5.94387 0 -5.68598e-06)
(5.94392 0 -4.77765e-06)
(5.94396 0 -3.80734e-06)
(5.944 0 -2.79083e-06)
(5.94403 0 -1.73685e-06)
(5.94405 0 -6.88666e-07)
(5.94407 0 1.81131e-07)
(5.94407 0 6.41667e-07)
(5.94408 0 -3.6055e-07)
(5.9441 0 -7.73635e-06)
(6.3616 0 -0.000874164)
(6.16616 0 -0.00477046)
(6.18447 0 -0.00424299)
(6.20297 0 -0.00348747)
(6.2199 0 -0.00289125)
(6.23503 0 -0.0024356)
(6.24849 0 -0.00208327)
(6.26048 0 -0.00180606)
(6.2712 0 -0.00158418)
(6.28084 0 -0.0014036)
(6.28954 0 -0.00125438)
(6.29744 0 -0.00112939)
(6.30463 0 -0.00102345)
(6.31122 0 -0.000932686)
(6.31727 0 -0.00085418)
(6.32285 0 -0.000785722)
(6.32802 0 -0.0007256)
(6.33281 0 -0.00067246)
(6.33726 0 -0.000625225)
(6.34142 0 -0.000583031)
(6.34531 0 -0.000545173)
(6.34895 0 -0.000511069)
(6.35237 0 -0.000480237)
(6.35559 0 -0.000452269)
(6.35862 0 -0.000426825)
(6.36149 0 -0.00040361)
(6.3642 0 -0.000382376)
(6.36677 0 -0.000362904)
(6.36921 0 -0.000345007)
(6.37152 0 -0.000328523)
(6.37373 0 -0.000313309)
(6.37583 0 -0.000299236)
(6.37784 0 -0.000286196)
(6.37975 0 -0.00027409)
(6.38159 0 -0.000262832)
(6.38335 0 -0.000252341)
(6.38503 0 -0.000242551)
(6.38665 0 -0.000233399)
(6.3882 0 -0.00022483)
(6.3897 0 -0.000216792)
(6.39114 0 -0.000209243)
(6.39252 0 -0.000202141)
(6.39386 0 -0.000195451)
(6.39515 0 -0.000189137)
(6.3964 0 -0.000183172)
(6.39761 0 -0.000177527)
(6.39878 0 -0.000172179)
(6.39991 0 -0.000167103)
(6.401 0 -0.00016228)
(6.40207 0 -0.000157692)
(6.4031 0 -0.000153322)
(6.4041 0 -0.000149153)
(6.40507 0 -0.00014517)
(6.40601 0 -0.000141363)
(6.40693 0 -0.000137718)
(6.40782 0 -0.000134223)
(6.40869 0 -0.00013087)
(6.40954 0 -0.000127649)
(6.41036 0 -0.000124552)
(6.41116 0 -0.000121569)
(6.41195 0 -0.000118694)
(6.41271 0 -0.000115922)
(6.41345 0 -0.000113246)
(6.41418 0 -0.000110658)
(6.41489 0 -0.000108155)
(6.41558 0 -0.000105733)
(6.41625 0 -0.000103386)
(6.41691 0 -0.000101109)
(6.41756 0 -9.89002e-05)
(6.41818 0 -9.67552e-05)
(6.4188 0 -9.46714e-05)
(6.4194 0 -9.26442e-05)
(6.41999 0 -9.06716e-05)
(6.42056 0 -8.87513e-05)
(6.42112 0 -8.68815e-05)
(6.42167 0 -8.50577e-05)
(6.42221 0 -8.3279e-05)
(6.42274 0 -8.15437e-05)
(6.42325 0 -7.98501e-05)
(6.42375 0 -7.81952e-05)
(6.42425 0 -7.65779e-05)
(6.42473 0 -7.4997e-05)
(6.4252 0 -7.34516e-05)
(6.42566 0 -7.19383e-05)
(6.42611 0 -7.04569e-05)
(6.42656 0 -6.90064e-05)
(6.42699 0 -6.75858e-05)
(6.42741 0 -6.61927e-05)
(6.42783 0 -6.48266e-05)
(6.42823 0 -6.34869e-05)
(6.42863 0 -6.21728e-05)
(6.42902 0 -6.0882e-05)
(6.4294 0 -5.96142e-05)
(6.42978 0 -5.83688e-05)
(6.43014 0 -5.71451e-05)
(6.4305 0 -5.59415e-05)
(6.43085 0 -5.47573e-05)
(6.43119 0 -5.35923e-05)
(6.43153 0 -5.24456e-05)
(6.43185 0 -5.13158e-05)
(6.43217 0 -5.02024e-05)
(6.43249 0 -4.91052e-05)
(6.43279 0 -4.80231e-05)
(6.43309 0 -4.69553e-05)
(6.43339 0 -4.59011e-05)
(6.43367 0 -4.48603e-05)
(6.43395 0 -4.38318e-05)
(6.43423 0 -4.28153e-05)
(6.4345 0 -4.18095e-05)
(6.43476 0 -4.08148e-05)
(6.43501 0 -3.98296e-05)
(6.43526 0 -3.88541e-05)
(6.43551 0 -3.78869e-05)
(6.43574 0 -3.69283e-05)
(6.43598 0 -3.59763e-05)
(6.4362 0 -3.50321e-05)
(6.43642 0 -3.40933e-05)
(6.43664 0 -3.3161e-05)
(6.43684 0 -3.22324e-05)
(6.43705 0 -3.13092e-05)
(6.43724 0 -3.03885e-05)
(6.43744 0 -2.94715e-05)
(6.43762 0 -2.85547e-05)
(6.4378 0 -2.76408e-05)
(6.43798 0 -2.67256e-05)
(6.43815 0 -2.58105e-05)
(6.43831 0 -2.48911e-05)
(6.43847 0 -2.39702e-05)
(6.43862 0 -2.30421e-05)
(6.43877 0 -2.21086e-05)
(6.43891 0 -2.11628e-05)
(6.43905 0 -2.0208e-05)
(6.43918 0 -1.92358e-05)
(6.43931 0 -1.82466e-05)
(6.43943 0 -1.72303e-05)
(6.43954 0 -1.61878e-05)
(6.43965 0 -1.5106e-05)
(6.43975 0 -1.3982e-05)
(6.43985 0 -1.27993e-05)
(6.43994 0 -1.15556e-05)
(6.44002 0 -1.02322e-05)
(6.44009 0 -8.82632e-06)
(6.44016 0 -7.32851e-06)
(6.44022 0 -5.75712e-06)
(6.44026 0 -4.13366e-06)
(6.44031 0 -2.5304e-06)
(6.44034 0 -1.16891e-06)
(6.44036 0 -4.29665e-07)
(6.44038 0 -1.86841e-06)
(6.44041 0 -1.23172e-05)
(6.73413 0 -0.00117418)
(6.55975 0 -0.00566245)
(6.57124 0 -0.00545333)
(6.58544 0 -0.00471249)
(6.59985 0 -0.00403781)
(6.6136 0 -0.00348459)
(6.62642 0 -0.00303552)
(6.63826 0 -0.00266912)
(6.64914 0 -0.00236743)
(6.65915 0 -0.00211628)
(6.66836 0 -0.00190491)
(6.67685 0 -0.00172518)
(6.68469 0 -0.00157092)
(6.69195 0 -0.00143735)
(6.69869 0 -0.00132077)
(6.70495 0 -0.00121834)
(6.71079 0 -0.00112777)
(6.71625 0 -0.00104726)
(6.72135 0 -0.000975317)
(6.72614 0 -0.000910762)
(6.73063 0 -0.000852602)
(6.73487 0 -0.000800014)
(6.73886 0 -0.000752315)
(6.74262 0 -0.000708915)
(6.74619 0 -0.000669321)
(6.74956 0 -0.000633106)
(6.75276 0 -0.000599903)
(6.7558 0 -0.000569391)
(6.75869 0 -0.000541294)
(6.76144 0 -0.000515368)
(6.76407 0 -0.0004914)
(6.76657 0 -0.000469198)
(6.76897 0 -0.000448597)
(6.77126 0 -0.000429449)
(6.77345 0 -0.000411621)
(6.77556 0 -0.000394994)
(6.77758 0 -0.000379462)
(6.77952 0 -0.000364931)
(6.78138 0 -0.000351318)
(6.78318 0 -0.000338542)
(6.7849 0 -0.000326536)
(6.78657 0 -0.000315237)
(6.78818 0 -0.00030459)
(6.78973 0 -0.000294541)
(6.79123 0 -0.000285045)
(6.79268 0 -0.000276059)
(6.79409 0 -0.000267545)
(6.79545 0 -0.000259467)
(6.79677 0 -0.000251793)
(6.79804 0 -0.000244495)
(6.79928 0 -0.000237545)
(6.80048 0 -0.000230918)
(6.80165 0 -0.000224591)
(6.80279 0 -0.000218545)
(6.80389 0 -0.000212761)
(6.80496 0 -0.00020722)
(6.806 0 -0.000201906)
(6.80702 0 -0.000196806)
(6.80801 0 -0.000191907)
(6.80897 0 -0.000187193)
(6.80991 0 -0.000182654)
(6.81082 0 -0.000178281)
(6.81172 0 -0.000174062)
(6.81258 0 -0.000169989)
(6.81343 0 -0.000166053)
(6.81426 0 -0.000162247)
(6.81507 0 -0.000158564)
(6.81586 0 -0.000154996)
(6.81663 0 -0.000151537)
(6.81738 0 -0.000148182)
(6.81812 0 -0.000144926)
(6.81884 0 -0.000141762)
(6.81954 0 -0.000138687)
(6.82023 0 -0.000135697)
(6.8209 0 -0.000132788)
(6.82156 0 -0.000129955)
(6.8222 0 -0.000127194)
(6.82283 0 -0.000124503)
(6.82344 0 -0.00012188)
(6.82404 0 -0.00011932)
(6.82463 0 -0.00011682)
(6.82521 0 -0.000114379)
(6.82577 0 -0.000111994)
(6.82632 0 -0.000109662)
(6.82686 0 -0.000107381)
(6.82739 0 -0.00010515)
(6.82791 0 -0.000102966)
(6.82842 0 -0.000100828)
(6.82891 0 -9.8732e-05)
(6.8294 0 -9.66786e-05)
(6.82987 0 -9.46659e-05)
(6.83034 0 -9.26909e-05)
(6.83079 0 -9.07528e-05)
(6.83124 0 -8.88506e-05)
(6.83168 0 -8.69827e-05)
(6.8321 0 -8.51473e-05)
(6.83252 0 -8.3343e-05)
(6.83293 0 -8.15693e-05)
(6.83333 0 -7.98247e-05)
(6.83373 0 -7.81075e-05)
(6.83411 0 -7.64166e-05)
(6.83448 0 -7.47514e-05)
(6.83485 0 -7.31106e-05)
(6.83521 0 -7.14929e-05)
(6.83556 0 -6.9897e-05)
(6.83591 0 -6.83227e-05)
(6.83624 0 -6.67683e-05)
(6.83657 0 -6.52332e-05)
(6.8369 0 -6.37159e-05)
(6.83721 0 -6.22163e-05)
(6.83752 0 -6.07324e-05)
(6.83782 0 -5.92643e-05)
(6.83811 0 -5.78101e-05)
(6.8384 0 -5.63699e-05)
(6.83868 0 -5.49414e-05)
(6.83895 0 -5.35253e-05)
(6.83921 0 -5.21193e-05)
(6.83947 0 -5.07237e-05)
(6.83973 0 -4.93357e-05)
(6.83997 0 -4.79566e-05)
(6.84021 0 -4.65832e-05)
(6.84044 0 -4.52163e-05)
(6.84067 0 -4.38521e-05)
(6.84089 0 -4.24929e-05)
(6.84111 0 -4.11341e-05)
(6.84131 0 -3.97767e-05)
(6.84151 0 -3.84158e-05)
(6.84171 0 -3.70536e-05)
(6.8419 0 -3.56841e-05)
(6.84208 0 -3.4308e-05)
(6.84226 0 -3.29179e-05)
(6.84243 0 -3.1516e-05)
(6.84259 0 -3.00929e-05)
(6.84275 0 -2.86474e-05)
(6.8429 0 -2.7168e-05)
(6.84304 0 -2.56533e-05)
(6.84318 0 -2.40878e-05)
(6.84331 0 -2.24653e-05)
(6.84344 0 -2.07659e-05)
(6.84355 0 -1.89829e-05)
(6.84366 0 -1.70934e-05)
(6.84376 0 -1.50898e-05)
(6.84386 0 -1.29606e-05)
(6.84394 0 -1.07262e-05)
(6.84401 0 -8.42112e-06)
(6.84408 0 -6.15138e-06)
(6.84413 0 -4.20127e-06)
(6.84418 0 -3.12238e-06)
(6.84422 0 -4.80266e-06)
(6.84427 0 -1.78764e-05)
(7.06205 0 -0.00129018)
(6.90368 0 -0.00609054)
(6.90963 0 -0.00632747)
(6.91921 0 -0.00574653)
(6.93025 0 -0.00509513)
(6.94164 0 -0.00451051)
(6.95283 0 -0.00400827)
(6.9636 0 -0.0035811)
(6.97383 0 -0.00321778)
(6.98348 0 -0.00290732)
(6.99255 0 -0.00264039)
(7.00107 0 -0.00240932)
(7.00905 0 -0.00220799)
(7.01655 0 -0.00203141)
(7.02358 0 -0.00187558)
(7.03019 0 -0.00173733)
(7.03641 0 -0.00161405)
(7.04226 0 -0.00150363)
(7.04778 0 -0.00140431)
(7.05299 0 -0.00131464)
(7.05791 0 -0.00123342)
(7.06257 0 -0.00115961)
(7.06698 0 -0.00109236)
(7.07116 0 -0.00103092)
(7.07514 0 -0.000974647)
(7.07892 0 -0.000922996)
(7.08251 0 -0.000875486)
(7.08594 0 -0.000831694)
(7.08921 0 -0.000791253)
(7.09233 0 -0.000753839)
(7.09531 0 -0.000719165)
(7.09817 0 -0.000686974)
(7.1009 0 -0.00065704)
(7.10352 0 -0.000629162)
(7.10604 0 -0.000603157)
(7.10845 0 -0.000578864)
(7.11078 0 -0.000556135)
(7.11301 0 -0.000534841)
(7.11516 0 -0.000514862)
(7.11723 0 -0.000496091)
(7.11923 0 -0.000478431)
(7.12116 0 -0.000461795)
(7.12302 0 -0.000446103)
(7.12482 0 -0.000431281)
(7.12656 0 -0.000417264)
(7.12825 0 -0.000403991)
(7.12988 0 -0.000391409)
(7.13146 0 -0.000379465)
(7.13299 0 -0.000368115)
(7.13447 0 -0.000357316)
(7.13591 0 -0.000347031)
(7.13731 0 -0.000337222)
(7.13867 0 -0.000327857)
(7.13999 0 -0.000318908)
(7.14128 0 -0.000310347)
(7.14253 0 -0.000302147)
(7.14374 0 -0.000294285)
(7.14493 0 -0.000286741)
(7.14608 0 -0.000279495)
(7.1472 0 -0.000272526)
(7.1483 0 -0.00026582)
(7.14937 0 -0.00025936)
(7.15041 0 -0.000253133)
(7.15142 0 -0.000247123)
(7.15241 0 -0.000241319)
(7.15338 0 -0.00023571)
(7.15432 0 -0.000230286)
(7.15524 0 -0.000225034)
(7.15614 0 -0.000219946)
(7.15702 0 -0.000215015)
(7.15788 0 -0.000210232)
(7.15872 0 -0.000205589)
(7.15954 0 -0.00020108)
(7.16034 0 -0.000196697)
(7.16113 0 -0.000192437)
(7.1619 0 -0.00018829)
(7.16265 0 -0.000184253)
(7.16338 0 -0.000180322)
(7.1641 0 -0.000176491)
(7.1648 0 -0.000172755)
(7.16549 0 -0.00016911)
(7.16616 0 -0.000165554)
(7.16682 0 -0.000162082)
(7.16747 0 -0.000158689)
(7.1681 0 -0.000155373)
(7.16872 0 -0.000152132)
(7.16932 0 -0.000148961)
(7.16992 0 -0.000145858)
(7.1705 0 -0.00014282)
(7.17106 0 -0.000139845)
(7.17162 0 -0.000136931)
(7.17217 0 -0.000134074)
(7.1727 0 -0.000131272)
(7.17322 0 -0.000128523)
(7.17373 0 -0.000125826)
(7.17423 0 -0.000123177)
(7.17473 0 -0.000120576)
(7.17521 0 -0.00011802)
(7.17568 0 -0.000115507)
(7.17614 0 -0.000113036)
(7.17659 0 -0.000110604)
(7.17703 0 -0.000108211)
(7.17746 0 -0.000105854)
(7.17789 0 -0.000103533)
(7.1783 0 -0.000101244)
(7.1787 0 -9.89876e-05)
(7.1791 0 -9.67615e-05)
(7.17949 0 -9.45645e-05)
(7.17987 0 -9.23947e-05)
(7.18024 0 -9.02515e-05)
(7.1806 0 -8.81328e-05)
(7.18096 0 -8.60379e-05)
(7.1813 0 -8.39648e-05)
(7.18164 0 -8.19129e-05)
(7.18197 0 -7.98798e-05)
(7.1823 0 -7.78658e-05)
(7.18261 0 -7.5868e-05)
(7.18292 0 -7.38865e-05)
(7.18322 0 -7.1918e-05)
(7.18351 0 -6.99635e-05)
(7.1838 0 -6.80194e-05)
(7.18408 0 -6.60861e-05)
(7.18435 0 -6.41594e-05)
(7.18461 0 -6.2241e-05)
(7.18487 0 -6.03261e-05)
(7.18512 0 -5.8415e-05)
(7.18536 0 -5.65025e-05)
(7.18559 0 -5.45899e-05)
(7.18582 0 -5.26708e-05)
(7.18604 0 -5.0745e-05)
(7.18626 0 -4.88043e-05)
(7.18647 0 -4.68498e-05)
(7.18667 0 -4.4871e-05)
(7.18686 0 -4.2865e-05)
(7.18705 0 -4.08186e-05)
(7.18722 0 -3.87278e-05)
(7.1874 0 -3.65747e-05)
(7.18756 0 -3.43493e-05)
(7.18772 0 -3.20281e-05)
(7.18786 0 -2.95994e-05)
(7.188 0 -2.70355e-05)
(7.18814 0 -2.43236e-05)
(7.18826 0 -2.14489e-05)
(7.18837 0 -1.8433e-05)
(7.18847 0 -1.5324e-05)
(7.18857 0 -1.22634e-05)
(7.18865 0 -9.60533e-06)
(7.18872 0 -8.09209e-06)
(7.18879 0 -9.902e-06)
(7.18885 0 -2.5109e-05)
(7.35767 0 -0.00131648)
(7.21224 0 -0.00620868)
(7.21446 0 -0.00686325)
(7.22009 0 -0.00652679)
(7.22774 0 -0.00598296)
(7.23639 0 -0.0054335)
(7.24545 0 -0.00492805)
(7.25458 0 -0.00447704)
(7.26357 0 -0.00407912)
(7.2723 0 -0.00372894)
(7.28072 0 -0.00342047)
(7.28878 0 -0.00314796)
(7.29647 0 -0.00290637)
(7.3038 0 -0.00269132)
(7.31077 0 -0.0024991)
(7.31739 0 -0.00232662)
(7.32369 0 -0.0021713)
(7.32967 0 -0.00203092)
(7.33536 0 -0.00190366)
(7.34077 0 -0.00178794)
(7.34591 0 -0.00168244)
(7.35082 0 -0.001586)
(7.35549 0 -0.00149766)
(7.35994 0 -0.00141653)
(7.36419 0 -0.00134189)
(7.36825 0 -0.00127308)
(7.37213 0 -0.00120954)
(7.37584 0 -0.00115075)
(7.3794 0 -0.00109627)
(7.3828 0 -0.0010457)
(7.38606 0 -0.000998697)
(7.3892 0 -0.000954931)
(7.39221 0 -0.000914124)
(7.3951 0 -0.000876023)
(7.39788 0 -0.000840399)
(7.40055 0 -0.000807045)
(7.40313 0 -0.000775774)
(7.40562 0 -0.000746418)
(7.40802 0 -0.000718826)
(7.41033 0 -0.000692857)
(7.41257 0 -0.000668386)
(7.41473 0 -0.000645299)
(7.41681 0 -0.000623491)
(7.41884 0 -0.000602866)
(7.42079 0 -0.000583337)
(7.42269 0 -0.000564826)
(7.42453 0 -0.00054726)
(7.42631 0 -0.000530569)
(7.42804 0 -0.000514695)
(7.42972 0 -0.00049958)
(7.43135 0 -0.000485174)
(7.43293 0 -0.000471428)
(7.43447 0 -0.000458297)
(7.43597 0 -0.000445743)
(7.43743 0 -0.000433729)
(7.43885 0 -0.000422218)
(7.44023 0 -0.000411179)
(7.44158 0 -0.000400584)
(7.44289 0 -0.000390407)
(7.44416 0 -0.000380619)
(7.44541 0 -0.000371199)
(7.44663 0 -0.000362126)
(7.44781 0 -0.00035338)
(7.44897 0 -0.00034494)
(7.4501 0 -0.000336792)
(7.4512 0 -0.000328918)
(7.45228 0 -0.000321305)
(7.45333 0 -0.000313936)
(7.45436 0 -0.0003068)
(7.45536 0 -0.000299886)
(7.45634 0 -0.000293182)
(7.4573 0 -0.000286677)
(7.45824 0 -0.000280361)
(7.45916 0 -0.000274225)
(7.46005 0 -0.000268263)
(7.46093 0 -0.000262463)
(7.46179 0 -0.000256819)
(7.46263 0 -0.000251324)
(7.46346 0 -0.000245972)
(7.46426 0 -0.000240756)
(7.46505 0 -0.00023567)
(7.46582 0 -0.000230708)
(7.46658 0 -0.000225867)
(7.46732 0 -0.000221139)
(7.46804 0 -0.00021652)
(7.46875 0 -0.000212007)
(7.46945 0 -0.000207595)
(7.47013 0 -0.000203278)
(7.47079 0 -0.000199055)
(7.47145 0 -0.000194921)
(7.47209 0 -0.000190873)
(7.47271 0 -0.000186906)
(7.47333 0 -0.000183018)
(7.47393 0 -0.000179206)
(7.47452 0 -0.000175467)
(7.4751 0 -0.000171797)
(7.47566 0 -0.000168194)
(7.47622 0 -0.000164656)
(7.47676 0 -0.00016118)
(7.47729 0 -0.000157763)
(7.47781 0 -0.000154403)
(7.47832 0 -0.000151097)
(7.47882 0 -0.000147843)
(7.47931 0 -0.00014464)
(7.47979 0 -0.000141484)
(7.48026 0 -0.000138374)
(7.48072 0 -0.000135308)
(7.48117 0 -0.000132283)
(7.48161 0 -0.000129298)
(7.48204 0 -0.000126352)
(7.48246 0 -0.000123441)
(7.48287 0 -0.000120564)
(7.48328 0 -0.000117719)
(7.48367 0 -0.000114905)
(7.48406 0 -0.00011212)
(7.48443 0 -0.000109361)
(7.4848 0 -0.000106628)
(7.48516 0 -0.000103919)
(7.48551 0 -0.00010123)
(7.48586 0 -9.85615e-05)
(7.48619 0 -9.59104e-05)
(7.48652 0 -9.32758e-05)
(7.48684 0 -9.06536e-05)
(7.48715 0 -8.80444e-05)
(7.48745 0 -8.54434e-05)
(7.48774 0 -8.285e-05)
(7.48803 0 -8.02586e-05)
(7.48831 0 -7.76697e-05)
(7.48858 0 -7.50764e-05)
(7.48884 0 -7.24773e-05)
(7.4891 0 -6.98638e-05)