/*--------------------------------*- C++ -*----------------------------------*\
| =========                 |                                                 |
| \\      /  F ield         | OpenFOAM: The Open Source CFD Toolbox           |
|  \\    /   O peration     | Version:  5.x                                   |
|   \\  /    A nd           | Web:      www.OpenFOAM.org                      |
|    \\/     M anipulation  |                                                 |
\*---------------------------------------------------------------------------*/
FoamFile
{
    version     2.0;
    format      ascii;
    class       volScalarField;
    location    "0";
    object      alphat;
}
// * * * * * * * * * * * * * * * * * * * * * * * * * * * * * * * * * * * * * //

dimensions      [1 -1 -1 0 0 0 0];

internalField   nonuniform List<scalar> 
86400
(
0.0220113
0.0073994
0.00740351
0.00741205
0.00742082
0.00742907
0.00743664
0.00744355
0.00744987
0.00745569
0.00746106
0.00746605
0.00747069
0.00747504
0.00747912
0.00748296
0.00748659
0.00749002
0.00749328
0.00749637
0.00749932
0.00750213
0.00750482
0.00750739
0.00750986
0.00751222
0.0075145
0.00751669
0.00751879
0.00752082
0.00752278
0.00752467
0.0075265
0.00752827
0.00752998
0.00753163
0.00753324
0.00753479
0.00753629
0.00753775
0.00753916
0.00754053
0.00754185
0.00754313
0.00754437
0.00754557
0.00754672
0.00754784
0.00754891
0.00754994
0.00755093
0.00755188
0.00755279
0.00755365
0.00755447
0.00755524
0.00755598
0.00755666
0.0075573
0.00755789
0.00755844
0.00755893
0.00755938
0.00755978
0.00756013
0.00756043
0.00756068
0.00756088
0.00756103
0.00756112
0.00756116
0.00756115
0.00756109
0.00756097
0.0075608
0.00756057
0.00756029
0.00755996
0.00755957
0.00755914
0.00755864
0.0075581
0.0075575
0.00755686
0.00755616
0.00755541
0.00755461
0.00755376
0.00755286
0.00755191
0.00755091
0.00754986
0.00754877
0.00754763
0.00754645
0.00754522
0.00754395
0.00754263
0.00754128
0.00753988
0.00753844
0.00753697
0.00753545
0.0075339
0.00753232
0.00753069
0.00752904
0.00752735
0.00752563
0.00752388
0.0075221
0.00752029
0.00751846
0.00751659
0.0075147
0.00751279
0.00751085
0.00750889
0.00750691
0.00750491
0.00750288
0.00750084
0.00749879
0.00749672
0.00749464
0.00749254
0.00749044
0.00748833
0.00748622
0.0074841
0.00748199
0.00747987
0.00747777
0.00747567
0.00747358
0.00747151
0.00746945
0.00746742
0.00746541
0.00746342
0.00746146
0.00745953
0.00745763
0.00745576
0.00745392
0.00745211
0.00745032
0.00744857
0.00744687
0.00744527
0.0569929
0.037469
0.0369954
0.036733
0.0365686
0.0364578
0.0363795
0.0363223
0.0362796
0.0362472
0.0362224
0.0362032
0.0361885
0.0361771
0.0361685
0.036162
0.0361573
0.036154
0.0361518
0.0361507
0.0361503
0.0361507
0.0361516
0.0361529
0.0361547
0.0361568
0.0361591
0.0361617
0.0361645
0.0361675
0.0361705
0.0361737
0.036177
0.0361803
0.0361837
0.0361871
0.0361905
0.0361939
0.0361973
0.0362007
0.0362041
0.0362074
0.0362106
0.0362138
0.0362169
0.0362199
0.0362228
0.0362255
0.0362282
0.0362308
0.0362332
0.0362354
0.0362375
0.0362395
0.0362412
0.0362428
0.0362442
0.0362454
0.0362464
0.0362472
0.0362477
0.0362481
0.0362482
0.0362481
0.0362477
0.0362471
0.0362463
0.0362452
0.0362439
0.0362423
0.0362405
0.0362384
0.036236
0.0362334
0.0362305
0.0362273
0.0362239
0.0362203
0.0362163
0.0362122
0.0362078
0.0362031
0.0361982
0.036193
0.0361876
0.036182
0.0361761
0.03617
0.0361637
0.0361572
0.0361504
0.0361434
0.0361362
0.0361288
0.0361212
0.0361134
0.0361054
0.0360972
0.0360888
0.0360802
0.0360715
0.0360625
0.0360534
0.0360442
0.0360348
0.0360252
0.0360155
0.0360056
0.0359956
0.0359854
0.0359751
0.0359646
0.0359541
0.0359434
0.0359325
0.0359216
0.0359105
0.0358993
0.035888
0.0358766
0.0358651
0.0358535
0.0358418
0.03583
0.035818
0.035806
0.0357939
0.0357818
0.0357695
0.0357571
0.0357447
0.0357322
0.0357197
0.035707
0.0356943
0.0356816
0.0356688
0.035656
0.0356431
0.0356302
0.0356173
0.0356043
0.0355914
0.0355785
0.0355656
0.0355527
0.0355399
0.0355272
0.0355147
0.0355023
0.0954257
0.074327
0.0734848
0.0729086
0.0724687
0.0721206
0.0718397
0.0716094
0.0714182
0.0712577
0.0711215
0.071005
0.0709046
0.0708175
0.0707416
0.0706751
0.0706165
0.0705648
0.0705189
0.0704782
0.0704419
0.0704095
0.0703805
0.0703546
0.0703313
0.0703105
0.0702917
0.0702748
0.0702597
0.0702461
0.0702338
0.0702228
0.0702129
0.070204
0.0701959
0.0701887
0.0701822
0.0701763
0.070171
0.0701662
0.0701618
0.0701578
0.0701541
0.0701507
0.0701475
0.0701444
0.0701414
0.0701385
0.0701356
0.0701327
0.0701297
0.0701267
0.0701234
0.0701201
0.0701165
0.0701126
0.0701086
0.0701042
0.0700995
0.0700945
0.0700891
0.0700833
0.0700771
0.0700705
0.0700635
0.070056
0.0700481
0.0700397
0.0700309
0.0700216
0.0700117
0.0700014
0.0699906
0.0699792
0.0699674
0.069955
0.0699421
0.0699288
0.0699149
0.0699006
0.0698858
0.0698705
0.0698548
0.0698386
0.0698219
0.0698048
0.0697873
0.0697693
0.0697509
0.0697321
0.0697129
0.0696933
0.0696733
0.069653
0.0696323
0.0696113
0.0695899
0.0695681
0.0695461
0.0695237
0.0695011
0.0694781
0.0694549
0.0694313
0.0694076
0.0693835
0.0693592
0.0693347
0.06931
0.069285
0.0692598
0.0692345
0.0692089
0.0691831
0.0691572
0.0691311
0.0691048
0.0690783
0.0690517
0.0690249
0.068998
0.0689709
0.0689436
0.0689162
0.0688886
0.0688609
0.068833
0.068805
0.0687768
0.0687485
0.06872
0.0686914
0.0686626
0.0686336
0.0686045
0.0685752
0.0685457
0.0685161
0.0684864
0.0684564
0.0684264
0.0683961
0.0683658
0.0683353
0.0683047
0.068274
0.0682433
0.0682126
0.068182
0.0681519
0.136574
0.115259
0.114806
0.114354
0.113899
0.113463
0.113059
0.112693
0.112362
0.112066
0.111801
0.111562
0.111347
0.111154
0.110979
0.11082
0.110676
0.110544
0.110424
0.110315
0.110214
0.110121
0.110036
0.109958
0.109885
0.109818
0.109756
0.109699
0.109645
0.109596
0.109549
0.109506
0.109466
0.109428
0.109393
0.10936
0.109329
0.1093
0.109273
0.109247
0.109222
0.109199
0.109177
0.109155
0.109135
0.109115
0.109096
0.109077
0.109059
0.109041
0.109024
0.109006
0.108988
0.108971
0.108953
0.108935
0.108917
0.108899
0.10888
0.108861
0.108842
0.108821
0.108801
0.10878
0.108758
0.108735
0.108712
0.108688
0.108663
0.108638
0.108612
0.108585
0.108557
0.108529
0.1085
0.10847
0.108439
0.108407
0.108375
0.108341
0.108308
0.108273
0.108238
0.108201
0.108165
0.108127
0.108089
0.10805
0.108011
0.107971
0.10793
0.107889
0.107847
0.107805
0.107762
0.107719
0.107675
0.107631
0.107587
0.107541
0.107496
0.10745
0.107404
0.107357
0.10731
0.107263
0.107215
0.107167
0.107119
0.107071
0.107023
0.106974
0.106925
0.106876
0.106826
0.106777
0.106727
0.106678
0.106628
0.106578
0.106528
0.106477
0.106427
0.106376
0.106326
0.106275
0.106224
0.106172
0.106121
0.106069
0.106018
0.105966
0.105914
0.105861
0.105809
0.105756
0.105703
0.10565
0.105596
0.105543
0.105488
0.105434
0.105379
0.105325
0.105269
0.105214
0.105158
0.105102
0.105046
0.104991
0.181161
0.159296
0.15968
0.159779
0.159671
0.159432
0.159122
0.158779
0.158427
0.158081
0.157747
0.157429
0.157128
0.156846
0.156581
0.156334
0.156103
0.155887
0.155684
0.155496
0.155319
0.155153
0.154998
0.154853
0.154716
0.154588
0.154467
0.154354
0.154247
0.154146
0.154051
0.153961
0.153876
0.153796
0.15372
0.153648
0.153579
0.153513
0.153451
0.153392
0.153335
0.15328
0.153227
0.153177
0.153128
0.15308
0.153034
0.152989
0.152945
0.152902
0.15286
0.152818
0.152776
0.152734
0.152693
0.152652
0.15261
0.152568
0.152526
0.152483
0.15244
0.152396
0.152352
0.152306
0.15226
0.152213
0.152165
0.152116
0.152066
0.152015
0.151963
0.15191
0.151856
0.1518
0.151744
0.151686
0.151627
0.151567
0.151506
0.151444
0.15138
0.151316
0.151251
0.151184
0.151117
0.151049
0.15098
0.150909
0.150838
0.150767
0.150694
0.15062
0.150546
0.150471
0.150396
0.150319
0.150242
0.150165
0.150087
0.150008
0.149929
0.149849
0.149769
0.149689
0.149608
0.149527
0.149446
0.149364
0.149282
0.1492
0.149118
0.149035
0.148953
0.14887
0.148788
0.148705
0.148622
0.148539
0.148456
0.148374
0.148291
0.148208
0.148125
0.148042
0.147959
0.147875
0.147792
0.147709
0.147625
0.147542
0.147458
0.147374
0.14729
0.147206
0.147122
0.147037
0.146952
0.146867
0.146782
0.146696
0.14661
0.146523
0.146437
0.14635
0.146262
0.146174
0.146085
0.145996
0.145907
0.145818
0.229898
0.206738
0.20797
0.208803
0.20929
0.209507
0.209528
0.209417
0.209221
0.20897
0.208688
0.208389
0.208084
0.207778
0.207477
0.207183
0.206898
0.206624
0.20636
0.206107
0.205866
0.205635
0.205415
0.205205
0.205004
0.204813
0.204631
0.204458
0.204292
0.204134
0.203984
0.20384
0.203702
0.203571
0.203445
0.203325
0.203209
0.203098
0.202992
0.20289
0.202791
0.202695
0.202603
0.202514
0.202427
0.202342
0.20226
0.202179
0.2021
0.202022
0.201945
0.201869
0.201794
0.201719
0.201645
0.20157
0.201496
0.201421
0.201345
0.201269
0.201193
0.201115
0.201037
0.200958
0.200877
0.200796
0.200713
0.200629
0.200543
0.200456
0.200368
0.200278
0.200186
0.200093
0.199999
0.199902
0.199804
0.199705
0.199604
0.199501
0.199397
0.199291
0.199185
0.199076
0.198967
0.198856
0.198743
0.19863
0.198515
0.198399
0.198282
0.198164
0.198045
0.197926
0.197805
0.197683
0.197561
0.197437
0.197314
0.197189
0.197064
0.196938
0.196812
0.196685
0.196558
0.196431
0.196303
0.196175
0.196047
0.195919
0.195791
0.195663
0.195535
0.195407
0.195279
0.195151
0.195024
0.194896
0.194769
0.194642
0.194515
0.194388
0.194261
0.194134
0.194008
0.193881
0.193755
0.193629
0.193502
0.193376
0.19325
0.193124
0.192997
0.192871
0.192745
0.192618
0.192492
0.192365
0.192238
0.192111
0.191983
0.191855
0.191727
0.191598
0.191469
0.191339
0.191209
0.191078
0.190946
0.190814
0.283382
0.258237
0.260106
0.261622
0.262771
0.263582
0.264109
0.264412
0.264546
0.264554
0.26447
0.26432
0.264124
0.263895
0.263643
0.263378
0.263105
0.262829
0.262552
0.262277
0.262006
0.26174
0.26148
0.261227
0.260981
0.260743
0.260511
0.260288
0.260072
0.259863
0.259661
0.259466
0.259278
0.259096
0.25892
0.258751
0.258587
0.258428
0.258274
0.258125
0.25798
0.257839
0.257702
0.257569
0.257438
0.257311
0.257185
0.257062
0.256941
0.256821
0.256703
0.256585
0.256469
0.256353
0.256237
0.256121
0.256005
0.255888
0.255771
0.255653
0.255534
0.255414
0.255293
0.25517
0.255045
0.254919
0.254791
0.254662
0.25453
0.254397
0.254261
0.254123
0.253983
0.253842
0.253697
0.253551
0.253403
0.253252
0.253099
0.252944
0.252787
0.252628
0.252467
0.252304
0.252139
0.251973
0.251804
0.251634
0.251463
0.25129
0.251115
0.250939
0.250762
0.250584
0.250404
0.250223
0.250041
0.249859
0.249675
0.249491
0.249305
0.249119
0.248933
0.248746
0.248559
0.248371
0.248183
0.247995
0.247808
0.24762
0.247432
0.247244
0.247057
0.24687
0.246683
0.246496
0.24631
0.246125
0.245939
0.245754
0.24557
0.245386
0.245202
0.245019
0.244836
0.244653
0.244471
0.244289
0.244107
0.243926
0.243745
0.243564
0.243383
0.243203
0.243022
0.242842
0.242662
0.242481
0.242301
0.242121
0.241941
0.24176
0.24158
0.241399
0.241217
0.241035
0.240852
0.240669
0.240485
0.2403
0.342166
0.314493
0.316748
0.318771
0.320498
0.321906
0.323003
0.323826
0.324418
0.32482
0.325071
0.325202
0.325238
0.3252
0.325105
0.324965
0.32479
0.32459
0.324371
0.324138
0.323895
0.323645
0.323392
0.323137
0.322882
0.322628
0.322377
0.322129
0.321884
0.321644
0.321409
0.321179
0.320953
0.320733
0.320517
0.320307
0.320101
0.3199
0.319704
0.319512
0.319324
0.31914
0.318959
0.318781
0.318607
0.318435
0.318265
0.318097
0.317931
0.317766
0.317602
0.317439
0.317277
0.317114
0.316952
0.316789
0.316625
0.31646
0.316294
0.316127
0.315958
0.315787
0.315614
0.31544
0.315262
0.315083
0.314901
0.314716
0.314529
0.314338
0.314145
0.313949
0.31375
0.313548
0.313344
0.313136
0.312925
0.312711
0.312494
0.312274
0.312051
0.311826
0.311598
0.311367
0.311134
0.310899
0.310661
0.31042
0.310178
0.309934
0.309687
0.309439
0.309189
0.308937
0.308684
0.308429
0.308173
0.307916
0.307657
0.307398
0.307137
0.306876
0.306614
0.306351
0.306088
0.305825
0.305561
0.305298
0.305034
0.304771
0.304508
0.304245
0.303983
0.303721
0.30346
0.303199
0.302939
0.30268
0.302421
0.302164
0.301906
0.30165
0.301394
0.301139
0.300885
0.300632
0.300379
0.300126
0.299875
0.299624
0.299373
0.299123
0.298874
0.298625
0.298377
0.298129
0.297881
0.297634
0.297387
0.29714
0.296894
0.296648
0.296402
0.296156
0.295909
0.295663
0.295415
0.295167
0.294919
0.294669
0.406811
0.376176
0.378617
0.380948
0.383092
0.384993
0.386622
0.387978
0.38908
0.389957
0.390638
0.391154
0.391531
0.391792
0.391957
0.392042
0.392062
0.392029
0.391952
0.391838
0.391696
0.39153
0.391345
0.391145
0.390934
0.390714
0.390487
0.390255
0.39002
0.389784
0.389546
0.389309
0.389072
0.388836
0.388603
0.388371
0.388141
0.387914
0.387689
0.387467
0.387247
0.387029
0.386813
0.386599
0.386387
0.386176
0.385966
0.385758
0.385549
0.385341
0.385133
0.384925
0.384716
0.384506
0.384295
0.384083
0.383868
0.383652
0.383433
0.383212
0.382988
0.382761
0.382531
0.382298
0.382061
0.381821
0.381576
0.381328
0.381077
0.380821
0.380561
0.380297
0.380029
0.379756
0.37948
0.3792
0.378915
0.378627
0.378334
0.378037
0.377736
0.377432
0.377123
0.376812
0.376496
0.376178
0.375856
0.375532
0.375204
0.374874
0.37454
0.374205
0.373867
0.373526
0.373184
0.37284
0.372493
0.372145
0.371796
0.371445
0.371093
0.370739
0.370385
0.37003
0.369675
0.369319
0.368963
0.368607
0.368251
0.367895
0.367539
0.367184
0.36683
0.366477
0.366124
0.365772
0.365421
0.365071
0.364722
0.364375
0.364028
0.363682
0.363338
0.362994
0.362652
0.36231
0.36197
0.361631
0.361293
0.360955
0.360619
0.360284
0.35995
0.359616
0.359284
0.358952
0.358622
0.358292
0.357963
0.357635
0.357307
0.35698
0.356654
0.356328
0.356002
0.355676
0.35535
0.355024
0.354697
0.354369
0.477919
0.443936
0.446435
0.448913
0.451303
0.453546
0.455592
0.457413
0.459
0.46036
0.461509
0.462468
0.463257
0.463898
0.464409
0.464809
0.465113
0.465334
0.465484
0.465573
0.465611
0.465604
0.46556
0.465483
0.46538
0.465253
0.465108
0.464946
0.46477
0.464583
0.464387
0.464183
0.463973
0.463758
0.463539
0.463316
0.463091
0.462864
0.462635
0.462404
0.462173
0.46194
0.461707
0.461472
0.461237
0.461
0.460762
0.460523
0.460282
0.460039
0.459794
0.459546
0.459296
0.459043
0.458786
0.458527
0.458263
0.457996
0.457724
0.457448
0.457168
0.456882
0.456592
0.456296
0.455996
0.45569
0.455378
0.455061
0.454738
0.454409
0.454075
0.453735
0.453389
0.453037
0.45268
0.452317
0.451948
0.451574
0.451195
0.450809
0.450419
0.450023
0.449622
0.449216
0.448805
0.44839
0.447971
0.447548
0.44712
0.446689
0.446254
0.445816
0.445374
0.44493
0.444482
0.444032
0.443579
0.443124
0.442667
0.442207
0.441746
0.441284
0.44082
0.440355
0.43989
0.439423
0.438957
0.43849
0.438023
0.437557
0.437091
0.436625
0.436161
0.435697
0.435234
0.434772
0.434312
0.433853
0.433395
0.432938
0.432483
0.432029
0.431577
0.431126
0.430677
0.430229
0.429783
0.429338
0.428895
0.428453
0.428013
0.427574
0.427137
0.426701
0.426267
0.425834
0.425403
0.424973
0.424544
0.424117
0.423691
0.423266
0.422843
0.42242
0.421998
0.421577
0.421156
0.420735
0.420314
0.419893
0.556141
0.518441
0.520924
0.523445
0.525943
0.528376
0.530696
0.532862
0.534846
0.536635
0.538228
0.539631
0.540856
0.541915
0.542825
0.543601
0.544255
0.544802
0.545253
0.54562
0.545913
0.546139
0.546308
0.546426
0.546499
0.546533
0.546532
0.546501
0.546443
0.546362
0.54626
0.54614
0.546004
0.545855
0.545693
0.54552
0.545337
0.545146
0.544947
0.544741
0.544528
0.544308
0.544083
0.543853
0.543616
0.543375
0.543128
0.542876
0.542619
0.542356
0.542087
0.541813
0.541532
0.541246
0.540953
0.540653
0.540347
0.540034
0.539714
0.539387
0.539052
0.53871
0.53836
0.538002
0.537637
0.537263
0.536882
0.536492
0.536094
0.535688
0.535274
0.534852
0.534422
0.533983
0.533537
0.533084
0.532622
0.532153
0.531677
0.531193
0.530702
0.530203
0.529698
0.529186
0.528667
0.528143
0.527613
0.527077
0.526536
0.525989
0.525438
0.524882
0.524321
0.523757
0.523188
0.522616
0.52204
0.521461
0.520878
0.520294
0.519706
0.519117
0.518526
0.517933
0.517339
0.516744
0.516148
0.515552
0.514956
0.514359
0.513763
0.513168
0.512573
0.51198
0.511387
0.510795
0.510205
0.509617
0.50903
0.508444
0.50786
0.507279
0.506698
0.50612
0.505544
0.504969
0.504397
0.503827
0.503258
0.502692
0.502127
0.501565
0.501005
0.500447
0.49989
0.499336
0.498785
0.498235
0.497687
0.497142
0.496598
0.496057
0.495517
0.494979
0.494443
0.493908
0.493374
0.492841
0.492307
0.491775
0.642183
0.600394
0.60282
0.605323
0.607842
0.610347
0.612806
0.615183
0.617443
0.619562
0.621523
0.623319
0.624951
0.626421
0.627739
0.628912
0.629951
0.630868
0.631671
0.632372
0.632979
0.633501
0.633947
0.634324
0.634638
0.634897
0.635104
0.635266
0.635387
0.635471
0.635521
0.635541
0.635534
0.635502
0.635447
0.635372
0.635278
0.635166
0.635038
0.634896
0.634739
0.634569
0.634386
0.634191
0.633985
0.633767
0.633538
0.633299
0.633048
0.632787
0.632515
0.632233
0.63194
0.631636
0.631321
0.630995
0.630658
0.630311
0.629951
0.629581
0.629199
0.628806
0.628402
0.627986
0.627558
0.627119
0.626668
0.626206
0.625733
0.625248
0.624751
0.624244
0.623726
0.623196
0.622656
0.622105
0.621544
0.620973
0.620391
0.6198
0.619199
0.618589
0.617969
0.61734
0.616703
0.616057
0.615403
0.614742
0.614074
0.613399
0.612717
0.612028
0.611334
0.610634
0.609929
0.609219
0.608503
0.607784
0.60706
0.606333
0.605602
0.604868
0.604131
0.603392
0.602651
0.601908
0.601164
0.600419
0.599674
0.598928
0.598182
0.597437
0.596692
0.595948
0.595205
0.594463
0.593722
0.592983
0.592246
0.59151
0.590777
0.590045
0.589315
0.588588
0.587863
0.58714
0.58642
0.585702
0.584987
0.584274
0.583564
0.582856
0.582152
0.58145
0.58075
0.580054
0.57936
0.578669
0.577982
0.577297
0.576615
0.575936
0.575259
0.574585
0.573914
0.573245
0.572578
0.571912
0.571248
0.570585
0.736831
0.690547
0.692895
0.695349
0.69784
0.700343
0.702842
0.705312
0.707726
0.710055
0.712278
0.714378
0.716346
0.718174
0.719864
0.721417
0.722837
0.724131
0.725305
0.726366
0.727323
0.728182
0.72895
0.729635
0.730243
0.73078
0.731251
0.731663
0.732019
0.732325
0.732583
0.732799
0.732975
0.733114
0.733219
0.733292
0.733336
0.733352
0.733343
0.733308
0.733251
0.733172
0.733071
0.73295
0.73281
0.73265
0.732472
0.732276
0.732062
0.731831
0.731582
0.731316
0.731033
0.730733
0.730416
0.730082
0.729732
0.729365
0.728981
0.728581
0.728164
0.72773
0.72728
0.726813
0.726331
0.725832
0.725317
0.724786
0.724239
0.723677
0.723099
0.722506
0.721898
0.721275
0.720638
0.719987
0.719321
0.718643
0.71795
0.717245
0.716527
0.715797
0.715054
0.7143
0.713533
0.712756
0.711968
0.71117
0.710363
0.709546
0.708721
0.707887
0.707045
0.706196
0.705339
0.704475
0.703605
0.702729
0.701848
0.700961
0.700069
0.699173
0.698273
0.69737
0.696464
0.695555
0.694644
0.693731
0.692817
0.691902
0.690987
0.690071
0.689155
0.68824
0.687325
0.686411
0.685499
0.684588
0.683678
0.682771
0.681865
0.680962
0.68006
0.679161
0.678265
0.677372
0.676481
0.675593
0.674708
0.673826
0.672947
0.672071
0.671199
0.67033
0.669465
0.668603
0.667745
0.66689
0.666039
0.665193
0.664349
0.66351
0.662675
0.661843
0.661015
0.66019
0.659368
0.658548
0.65773
0.656917
0.840942
0.789729
0.791989
0.794377
0.796817
0.799281
0.80176
0.80424
0.806706
0.809136
0.811509
0.813806
0.816012
0.818115
0.820107
0.821983
0.823742
0.825384
0.826912
0.828328
0.829638
0.830846
0.831957
0.832976
0.833908
0.834759
0.835534
0.836238
0.836874
0.837448
0.837963
0.838423
0.838831
0.839191
0.839505
0.839776
0.840006
0.840198
0.840353
0.840473
0.84056
0.840615
0.840638
0.840632
0.840597
0.840534
0.840443
0.840325
0.840181
0.840011
0.839815
0.839594
0.839348
0.839078
0.838783
0.838464
0.838121
0.837754
0.837364
0.83695
0.836513
0.836053
0.83557
0.835064
0.834537
0.833987
0.833415
0.832822
0.832208
0.831573
0.830917
0.830241
0.829545
0.82883
0.828095
0.827342
0.82657
0.825781
0.824974
0.82415
0.823309
0.822453
0.821581
0.820693
0.81979
0.818873
0.817941
0.816997
0.81604
0.815071
0.814091
0.813099
0.812097
0.811085
0.810063
0.809032
0.807993
0.806946
0.805891
0.804829
0.80376
0.802685
0.801605
0.80052
0.799431
0.798338
0.797241
0.796142
0.79504
0.793936
0.792831
0.791725
0.790618
0.789511
0.788404
0.787297
0.786191
0.785087
0.783983
0.782881
0.781781
0.780683
0.779587
0.778494
0.777403
0.776316
0.775231
0.774149
0.773071
0.771996
0.770925
0.769857
0.768794
0.767734
0.766679
0.765628
0.764581
0.763539
0.762502
0.761469
0.760441
0.759418
0.7584
0.757386
0.756378
0.755373
0.754373
0.753376
0.752382
0.751395
0.955461
0.898839
0.901007
0.90332
0.905698
0.908108
0.910538
0.912982
0.915433
0.91788
0.920308
0.922701
0.925044
0.927322
0.929525
0.931642
0.933668
0.935598
0.93743
0.939163
0.940797
0.942335
0.943778
0.945129
0.946391
0.947568
0.948663
0.94968
0.950623
0.951494
0.952298
0.953037
0.953715
0.954334
0.954897
0.955407
0.955865
0.956274
0.956636
0.956952
0.957224
0.957453
0.957641
0.957789
0.957897
0.957968
0.958
0.957996
0.957955
0.957879
0.957767
0.957621
0.957441
0.957227
0.95698
0.9567
0.956387
0.956042
0.955665
0.955257
0.954817
0.954347
0.953846
0.953316
0.952756
0.952166
0.951548
0.950902
0.950228
0.949526
0.948798
0.948043
0.947263
0.946457
0.945627
0.944772
0.943894
0.942993
0.942069
0.941124
0.940157
0.93917
0.938163
0.937136
0.936091
0.935026
0.933944
0.932844
0.931729
0.930598
0.929452
0.928293
0.927119
0.925932
0.924733
0.923522
0.9223
0.921067
0.919825
0.918573
0.917312
0.916043
0.914767
0.913484
0.912195
0.9109
0.9096
0.908296
0.906988
0.905677
0.904363
0.903046
0.901729
0.900409
0.89909
0.897769
0.896449
0.895129
0.89381
0.892492
0.891175
0.88986
0.888547
0.887236
0.885928
0.884623
0.883321
0.882022
0.880726
0.879435
0.878147
0.876863
0.875584
0.87431
0.87304
0.871775
0.870515
0.869261
0.868012
0.866769
0.865532
0.8643
0.863075
0.861855
0.860641
0.859433
0.85823
0.857032
0.855838
0.854653
1.08143
1.01887
1.02095
1.02318
1.02549
1.02784
1.03022
1.0326
1.03501
1.03742
1.03984
1.04225
1.04464
1.047
1.04932
1.05158
1.05379
1.05593
1.05799
1.05997
1.06188
1.0637
1.06543
1.06708
1.06865
1.07014
1.07155
1.07287
1.07412
1.0753
1.0764
1.07744
1.0784
1.0793
1.08014
1.08092
1.08163
1.08229
1.08288
1.08343
1.08392
1.08435
1.08474
1.08507
1.08536
1.08559
1.08578
1.08592
1.08601
1.08606
1.08606
1.08601
1.08593
1.08579
1.08562
1.0854
1.08514
1.08484
1.08449
1.08411
1.08368
1.08322
1.08271
1.08217
1.08159
1.08097
1.08032
1.07963
1.0789
1.07814
1.07735
1.07652
1.07566
1.07477
1.07384
1.07289
1.0719
1.07089
1.06985
1.06878
1.06769
1.06657
1.06542
1.06425
1.06305
1.06184
1.0606
1.05934
1.05805
1.05675
1.05543
1.05409
1.05274
1.05137
1.04998
1.04858
1.04716
1.04573
1.04428
1.04283
1.04136
1.03988
1.0384
1.0369
1.03539
1.03388
1.03236
1.03084
1.0293
1.02777
1.02623
1.02468
1.02313
1.02158
1.02003
1.01848
1.01692
1.01537
1.01381
1.01225
1.0107
1.00915
1.00759
1.00604
1.00449
1.00295
1.00141
0.999866
0.99833
0.996798
0.99527
0.993746
0.992227
0.990713
0.989204
0.987701
0.986203
0.984712
0.983227
0.981748
0.980276
0.978811
0.977353
0.975902
0.974458
0.97302
0.97159
0.970165
0.968746
0.96734
1.21998
1.15092
1.15291
1.15505
1.15729
1.15958
1.16189
1.16422
1.16657
1.16893
1.1713
1.17367
1.17605
1.17842
1.18078
1.18311
1.1854
1.18766
1.18987
1.19203
1.19412
1.19616
1.19812
1.20002
1.20185
1.2036
1.20528
1.20689
1.20842
1.20989
1.21128
1.2126
1.21385
1.21503
1.21615
1.21719
1.21817
1.21909
1.21994
1.22072
1.22144
1.22211
1.22271
1.22325
1.22373
1.22415
1.22451
1.22481
1.22506
1.22525
1.22538
1.22546
1.22548
1.22545
1.22536
1.22522
1.22503
1.22479
1.22449
1.22414
1.22375
1.2233
1.2228
1.22226
1.22167
1.22103
1.22035
1.21962
1.21885
1.21804
1.21718
1.21628
1.21534
1.21437
1.21335
1.2123
1.21121
1.21008
1.20892
1.20772
1.2065
1.20524
1.20395
1.20263
1.20128
1.1999
1.1985
1.19707
1.19561
1.19413
1.19263
1.19111
1.18956
1.18799
1.1864
1.1848
1.18317
1.18153
1.17987
1.1782
1.17651
1.17481
1.1731
1.17138
1.16964
1.16789
1.16614
1.16437
1.1626
1.16082
1.15904
1.15725
1.15545
1.15365
1.15185
1.15004
1.14823
1.14642
1.14461
1.14279
1.14098
1.13917
1.13735
1.13554
1.13373
1.13192
1.13012
1.12831
1.12651
1.12472
1.12293
1.12114
1.11936
1.11758
1.11581
1.11404
1.11228
1.11053
1.10878
1.10704
1.10531
1.10359
1.10187
1.10016
1.09846
1.09677
1.09509
1.09341
1.09174
1.09009
1.37237
1.29617
1.29807
1.30014
1.3023
1.30452
1.30678
1.30905
1.31134
1.31364
1.31595
1.31827
1.3206
1.32293
1.32527
1.3276
1.32992
1.33222
1.33449
1.33674
1.33895
1.34112
1.34324
1.34531
1.34733
1.34928
1.35118
1.35302
1.35479
1.3565
1.35814
1.35972
1.36122
1.36266
1.36403
1.36533
1.36656
1.36772
1.36881
1.36984
1.37079
1.37168
1.37249
1.37324
1.37392
1.37453
1.37507
1.37554
1.37595
1.37628
1.37656
1.37676
1.3769
1.37697
1.37698
1.37693
1.37681
1.37663
1.37639
1.37608
1.37572
1.37529
1.37481
1.37427
1.37367
1.37301
1.3723
1.37154
1.37072
1.36986
1.36894
1.36797
1.36695
1.36589
1.36477
1.36362
1.36242
1.36118
1.35989
1.35857
1.3572
1.3558
1.35436
1.35288
1.35137
1.34983
1.34825
1.34664
1.34501
1.34334
1.34164
1.33992
1.33817
1.3364
1.3346
1.33278
1.33093
1.32907
1.32719
1.32528
1.32336
1.32143
1.31947
1.31751
1.31552
1.31353
1.31152
1.3095
1.30748
1.30544
1.30339
1.30134
1.29928
1.29721
1.29513
1.29306
1.29098
1.28889
1.2868
1.28471
1.28262
1.28052
1.27843
1.27634
1.27424
1.27215
1.27006
1.26797
1.26589
1.26381
1.26173
1.25965
1.25759
1.25552
1.25346
1.25141
1.24936
1.24733
1.24529
1.24327
1.24125
1.23925
1.23725
1.23526
1.23328
1.23131
1.22935
1.2274
1.22545
1.22353
1.53999
1.45594
1.45777
1.45975
1.46183
1.46399
1.46618
1.4684
1.47064
1.47288
1.47514
1.4774
1.47967
1.48195
1.48423
1.48652
1.48881
1.4911
1.49338
1.49565
1.4979
1.50013
1.50233
1.5045
1.50663
1.50872
1.51076
1.51276
1.5147
1.51659
1.51842
1.5202
1.52191
1.52355
1.52513
1.52664
1.52809
1.52946
1.53076
1.53199
1.53315
1.53423
1.53523
1.53616
1.53702
1.5378
1.5385
1.53913
1.53968
1.54015
1.54054
1.54086
1.54111
1.54128
1.54137
1.54139
1.54134
1.54121
1.54101
1.54074
1.54039
1.53998
1.5395
1.53895
1.53834
1.53766
1.53691
1.5361
1.53523
1.5343
1.53331
1.53226
1.53116
1.52999
1.52878
1.52751
1.52619
1.52482
1.5234
1.52193
1.52042
1.51886
1.51726
1.51562
1.51394
1.51221
1.51045
1.50866
1.50682
1.50495
1.50305
1.50112
1.49916
1.49716
1.49514
1.49309
1.49102
1.48892
1.48679
1.48464
1.48248
1.48029
1.47808
1.47585
1.47361
1.47135
1.46908
1.46679
1.46449
1.46218
1.45985
1.45752
1.45517
1.45282
1.45046
1.4481
1.44572
1.44334
1.44096
1.43858
1.43619
1.43379
1.4314
1.429
1.42661
1.42421
1.42182
1.41942
1.41703
1.41464
1.41226
1.40988
1.4075
1.40513
1.40276
1.4004
1.39804
1.3957
1.39336
1.39102
1.3887
1.38639
1.38408
1.38179
1.3795
1.37723
1.37496
1.37271
1.37047
1.36825
1.72435
1.63169
1.63343
1.63534
1.63734
1.63943
1.64156
1.64372
1.64591
1.6481
1.65031
1.65252
1.65473
1.65695
1.65918
1.66142
1.66366
1.6659
1.66814
1.67038
1.67262
1.67485
1.67706
1.67926
1.68143
1.68358
1.68569
1.68777
1.68981
1.69181
1.69376
1.69566
1.6975
1.69928
1.70101
1.70267
1.70426
1.70578
1.70723
1.70861
1.70991
1.71113
1.71228
1.71335
1.71433
1.71523
1.71605
1.71679
1.71744
1.71801
1.71849
1.71889
1.7192
1.71943
1.71957
1.71963
1.71961
1.7195
1.71932
1.71905
1.7187
1.71827
1.71777
1.71719
1.71653
1.7158
1.71499
1.71411
1.71317
1.71215
1.71106
1.70991
1.7087
1.70742
1.70607
1.70467
1.70321
1.70169
1.70012
1.69849
1.69681
1.69508
1.6933
1.69147
1.6896
1.68768
1.68572
1.68371
1.68167
1.67958
1.67746
1.67529
1.6731
1.67087
1.6686
1.66631
1.66398
1.66163
1.65925
1.65684
1.6544
1.65195
1.64947
1.64697
1.64445
1.6419
1.63935
1.63677
1.63418
1.63157
1.62895
1.62632
1.62368
1.62102
1.61836
1.61569
1.613
1.61032
1.60762
1.60492
1.60221
1.5995
1.59679
1.59408
1.59136
1.58864
1.58592
1.5832
1.58048
1.57777
1.57505
1.57234
1.56964
1.56694
1.56424
1.56155
1.55886
1.55618
1.55351
1.55085
1.5482
1.54556
1.54292
1.5403
1.53769
1.53509
1.5325
1.52992
1.52735
1.52482
1.92712
1.82499
1.82667
1.8285
1.83043
1.83244
1.83451
1.83661
1.83874
1.84089
1.84305
1.84521
1.84738
1.84955
1.85173
1.85391
1.85609
1.85828
1.86047
1.86266
1.86485
1.86703
1.86921
1.87138
1.87354
1.87568
1.8778
1.87989
1.88195
1.88398
1.88596
1.8879
1.88979
1.89163
1.89341
1.89513
1.89679
1.89838
1.89989
1.90134
1.9027
1.90399
1.9052
1.90632
1.90736
1.90831
1.90917
1.90994
1.91062
1.91122
1.91172
1.91213
1.91244
1.91267
1.9128
1.91284
1.91279
1.91266
1.91243
1.91211
1.9117
1.91121
1.91063
1.90997
1.90922
1.90839
1.90748
1.90649
1.90542
1.90427
1.90305
1.90176
1.9004
1.89896
1.89746
1.89589
1.89425
1.89255
1.89079
1.88897
1.88709
1.88515
1.88316
1.88112
1.87903
1.87688
1.87469
1.87245
1.87017
1.86784
1.86546
1.86305
1.86059
1.8581
1.85557
1.85301
1.85041
1.84778
1.84512
1.84242
1.8397
1.83696
1.83418
1.83139
1.82856
1.82572
1.82286
1.81997
1.81707
1.81415
1.81122
1.80827
1.80531
1.80233
1.79934
1.79634
1.79333
1.79031
1.78728
1.78425
1.78121
1.77816
1.77511
1.77206
1.769
1.76594
1.76287
1.75981
1.75675
1.75368
1.75062
1.74756
1.74451
1.74145
1.73841
1.73536
1.73233
1.7293
1.72628
1.72326
1.72026
1.71727
1.71428
1.71131
1.70835
1.7054
1.70246
1.69953
1.69662
1.69376
2.15014
2.03761
2.03922
2.04098
2.04284
2.04478
2.04678
2.04882
2.0509
2.053
2.05511
2.05723
2.05936
2.06149
2.06362
2.06575
2.06789
2.07002
2.07215
2.07428
2.07641
2.07853
2.08065
2.08276
2.08486
2.08694
2.089
2.09104
2.09305
2.09503
2.09697
2.09886
2.10072
2.10252
2.10426
2.10594
2.10756
2.10911
2.11059
2.112
2.11332
2.11457
2.11573
2.1168
2.11778
2.11868
2.11948
2.12019
2.1208
2.12132
2.12174
2.12206
2.12229
2.12241
2.12244
2.12238
2.12221
2.12195
2.1216
2.12115
2.1206
2.11996
2.11923
2.11841
2.1175
2.1165
2.11542
2.11425
2.11299
2.11166
2.11024
2.10874
2.10717
2.10552
2.1038
2.10201
2.10014
2.09821
2.09621
2.09415
2.09203
2.08984
2.0876
2.0853
2.08294
2.08053
2.07807
2.07555
2.07299
2.07038
2.06772
2.06502
2.06227
2.05948
2.05665
2.05379
2.05088
2.04794
2.04497
2.04196
2.03893
2.03586
2.03277
2.02964
2.0265
2.02332
2.02013
2.01691
2.01368
2.01042
2.00715
2.00385
2.00055
1.99722
1.99389
1.99054
1.98718
1.98381
1.98043
1.97704
1.97364
1.97023
1.96682
1.96341
1.95999
1.95656
1.95313
1.94971
1.94628
1.94285
1.93942
1.93599
1.93256
1.92914
1.92572
1.92231
1.9189
1.9155
1.91211
1.90872
1.90535
1.90198
1.89863
1.89528
1.89195
1.88863
1.88532
1.88203
1.87875
1.87553
2.39541
2.27146
2.27302
2.2747
2.27649
2.27836
2.2803
2.28228
2.2843
2.28635
2.28841
2.29049
2.29258
2.29467
2.29676
2.29886
2.30094
2.30303
2.30511
2.30718
2.30925
2.3113
2.31334
2.31536
2.31737
2.31936
2.32132
2.32325
2.32514
2.327