/*--------------------------------*- C++ -*----------------------------------*\
| =========                 |                                                 |
| \\      /  F ield         | OpenFOAM: The Open Source CFD Toolbox           |
|  \\    /   O peration     | Version:  5.x                                   |
|   \\  /    A nd           | Web:      www.OpenFOAM.org                      |
|    \\/     M anipulation  |                                                 |
\*---------------------------------------------------------------------------*/
FoamFile
{
    version     2.0;
    format      ascii;
    class       volScalarField;
    location    "0";
    object      epsilon;
}
// * * * * * * * * * * * * * * * * * * * * * * * * * * * * * * * * * * * * * //

dimensions      [0 2 -3 0 0 0 0];

internalField   nonuniform List<scalar> 
86400
(
8.83889
22.5202
22.5577
22.6358
22.7162
22.7921
22.8618
22.9255
22.984
23.0379
23.0878
23.1341
23.1773
23.2178
23.2558
23.2917
23.3255
23.3576
23.3881
23.4171
23.4447
23.4711
23.4964
23.5205
23.5437
23.566
23.5874
23.608
23.6278
23.647
23.6655
23.6833
23.7006
23.7173
23.7335
23.7491
23.7643
23.779
23.7932
23.807
23.8204
23.8333
23.8459
23.8581
23.8698
23.8812
23.8922
23.9027
23.9129
23.9227
23.9321
23.9412
23.9498
23.958
23.9658
23.9732
23.9801
23.9866
23.9927
23.9984
24.0036
24.0083
24.0126
24.0164
24.0197
24.0226
24.0249
24.0268
24.0282
24.0291
24.0295
24.0294
24.0288
24.0276
24.026
24.0238
24.0212
24.018
24.0143
24.0102
24.0055
24.0003
23.9946
23.9884
23.9818
23.9746
23.967
23.9589
23.9503
23.9413
23.9318
23.9219
23.9115
23.9007
23.8894
23.8777
23.8657
23.8532
23.8403
23.8271
23.8134
23.7995
23.7851
23.7705
23.7554
23.7401
23.7245
23.7085
23.6923
23.6758
23.659
23.6419
23.6246
23.607
23.5892
23.5712
23.553
23.5345
23.5159
23.4971
23.4781
23.4589
23.4396
23.4202
23.4007
23.3811
23.3614
23.3416
23.3219
23.3021
23.2823
23.2626
23.2429
23.2233
23.2039
23.1846
23.1654
23.1465
23.1278
23.1093
23.0911
23.0732
23.0556
23.0383
23.0212
23.0044
22.9879
22.9717
22.956
22.9411
3.40545
4.97191
4.97085
4.98586
5.00526
5.02476
5.04314
5.06012
5.07573
5.09009
5.10335
5.11562
5.12703
5.13767
5.14763
5.15697
5.16577
5.17408
5.18194
5.18939
5.19646
5.2032
5.20962
5.21576
5.22163
5.22724
5.23263
5.23781
5.24278
5.24756
5.25217
5.25661
5.2609
5.26504
5.26903
5.2729
5.27664
5.28025
5.28375
5.28714
5.29042
5.29359
5.29666
5.29963
5.30251
5.30528
5.30797
5.31055
5.31305
5.31545
5.31776
5.31997
5.32209
5.32411
5.32604
5.32787
5.32961
5.33125
5.33278
5.33422
5.33556
5.33679
5.33792
5.33894
5.33986
5.34067
5.34137
5.34196
5.34244
5.34281
5.34307
5.34322
5.34326
5.34318
5.34299
5.34269
5.34227
5.34174
5.34109
5.34034
5.33947
5.33849
5.3374
5.33619
5.33488
5.33347
5.33194
5.33031
5.32857
5.32673
5.32478
5.32274
5.32059
5.31835
5.31601
5.31358
5.31105
5.30843
5.30573
5.30294
5.30006
5.2971
5.29406
5.29094
5.28775
5.28448
5.28114
5.27773
5.27425
5.27071
5.2671
5.26343
5.2597
5.25591
5.25206
5.24816
5.24421
5.24021
5.23616
5.23207
5.22793
5.22375
5.21954
5.2153
5.21102
5.20672
5.2024
5.19806
5.19371
5.18934
5.18498
5.18061
5.17625
5.17191
5.16758
5.16327
5.159
5.15476
5.15056
5.14641
5.14232
5.13828
5.1343
5.13039
5.12654
5.12276
5.11903
5.11535
5.1117
5.10808
2.05802
2.52709
2.49935
2.48898
2.48753
2.49019
2.49471
2.50004
2.50564
2.51128
2.5168
2.52215
2.52729
2.53222
2.53693
2.54143
2.54573
2.54984
2.55376
2.55751
2.5611
2.56454
2.56784
2.57101
2.57405
2.57697
2.57978
2.58249
2.58509
2.58761
2.59003
2.59238
2.59464
2.59683
2.59894
2.60099
2.60297
2.60489
2.60675
2.60855
2.61029
2.61198
2.61361
2.6152
2.61673
2.61821
2.61964
2.62102
2.62235
2.62363
2.62487
2.62605
2.62719
2.62828
2.62932
2.63031
2.63125
2.63215
2.63299
2.63378
2.63451
2.6352
2.63584
2.63642
2.63695
2.63742
2.63784
2.63821
2.63852
2.63878
2.63898
2.63913
2.63922
2.63926
2.63924
2.63916
2.63903
2.63885
2.6386
2.6383
2.63795
2.63754
2.63708
2.63656
2.63599
2.63537
2.63469
2.63396
2.63318
2.63234
2.63146
2.63053
2.62954
2.62851
2.62743
2.62631
2.62513
2.62392
2.62265
2.62135
2.62
2.61861
2.61718
2.61572
2.61421
2.61266
2.61108
2.60947
2.60781
2.60613
2.60441
2.60266
2.60088
2.59906
2.59722
2.59535
2.59345
2.59152
2.58957
2.58759
2.58559
2.58357
2.58153
2.57947
2.57739
2.57529
2.57319
2.57106
2.56893
2.56679
2.56464
2.56249
2.56033
2.55818
2.55603
2.55388
2.55175
2.54962
2.54751
2.54541
2.54334
2.54129
2.53926
2.53726
2.53529
2.53335
2.53144
2.52956
2.52769
2.52584
1.4462
1.66579
1.63506
1.61659
1.60646
1.60131
1.59909
1.59862
1.59922
1.60049
1.60218
1.60412
1.60621
1.60839
1.6106
1.61281
1.61501
1.61718
1.61931
1.62139
1.62342
1.6254
1.62733
1.6292
1.63102
1.63278
1.6345
1.63616
1.63777
1.63934
1.64086
1.64234
1.64377
1.64517
1.64652
1.64783
1.64911
1.65035
1.65155
1.65272
1.65385
1.65495
1.65602
1.65706
1.65806
1.65903
1.65998
1.66089
1.66177
1.66262
1.66343
1.66422
1.66498
1.6657
1.6664
1.66706
1.66769
1.66829
1.66886
1.66939
1.66989
1.67036
1.67079
1.67119
1.67156
1.6719
1.67219
1.67246
1.67269
1.67289
1.67305
1.67317
1.67326
1.67332
1.67334
1.67333
1.67328
1.67319
1.67307
1.67292
1.67273
1.67251
1.67225
1.67196
1.67163
1.67127
1.67088
1.67045
1.67
1.66951
1.66898
1.66843
1.66785
1.66723
1.66659
1.66591
1.66521
1.66448
1.66372
1.66293
1.66212
1.66128
1.66041
1.65952
1.6586
1.65766
1.6567
1.65571
1.6547
1.65367
1.65262
1.65155
1.65045
1.64934
1.6482
1.64705
1.64588
1.64469
1.64348
1.64226
1.64102
1.63976
1.63849
1.63721
1.63591
1.63461
1.63329
1.63196
1.63062
1.62928
1.62793
1.62657
1.62521
1.62384
1.62247
1.62111
1.61974
1.61838
1.61702
1.61567
1.61433
1.61299
1.61167
1.61036
1.60907
1.6078
1.60654
1.6053
1.60408
1.60287
1.09205
1.22519
1.20119
1.18293
1.17037
1.16199
1.15648
1.15291
1.15068
1.14939
1.14876
1.14861
1.14881
1.14926
1.14989
1.15067
1.15154
1.15248
1.15347
1.15449
1.15554
1.1566
1.15766
1.15872
1.15977
1.16082
1.16185
1.16287
1.16387
1.16486
1.16583
1.16678
1.16771
1.16862
1.16951
1.17038
1.17124
1.17207
1.17289
1.17368
1.17446
1.17521
1.17595
1.17667
1.17736
1.17804
1.1787
1.17934
1.17995
1.18055
1.18113
1.18168
1.18222
1.18273
1.18323
1.1837
1.18415
1.18457
1.18498
1.18536
1.18572
1.18605
1.18637
1.18666
1.18692
1.18716
1.18738
1.18757
1.18774
1.18789
1.18801
1.18811
1.18818
1.18823
1.18825
1.18825
1.18822
1.18817
1.1881
1.188
1.18787
1.18773
1.18755
1.18736
1.18714
1.1869
1.18663
1.18634
1.18603
1.1857
1.18535
1.18497
1.18457
1.18415
1.18371
1.18325
1.18277
1.18227
1.18174
1.1812
1.18065
1.18007
1.17947
1.17886
1.17823
1.17758
1.17692
1.17623
1.17554
1.17482
1.1741
1.17335
1.17259
1.17182
1.17103
1.17023
1.16942
1.16859
1.16775
1.1669
1.16604
1.16517
1.16428
1.16338
1.16248
1.16156
1.16064
1.15971
1.15877
1.15782
1.15687
1.15591
1.15495
1.15398
1.15301
1.15204
1.15106
1.15009
1.14911
1.14814
1.14717
1.1462
1.14524
1.14429
1.14334
1.1424
1.14148
1.14056
1.13966
1.13878
0.860592
0.95286
0.937136
0.922583
0.910917
0.902033
0.895379
0.89042
0.886734
0.884006
0.882005
0.88056
0.879546
0.878867
0.878452
0.878246
0.878205
0.878297
0.878494
0.878776
0.879126
0.879531
0.879978
0.88046
0.880969
0.881498
0.882042
0.882598
0.883162
0.88373
0.884302
0.884873
0.885444
0.886011
0.886575
0.887133
0.887685
0.888231
0.888768
0.889298
0.889818
0.89033
0.890831
0.891322
0.891802
0.892271
0.892728
0.893173
0.893605
0.894025
0.894431
0.894824
0.895203
0.895567
0.895917
0.896252
0.896571
0.896875
0.897163
0.897435
0.89769
0.897929
0.898151
0.898356
0.898544
0.898714
0.898867
0.899002
0.899119
0.899218
0.8993
0.899363
0.899408
0.899435
0.899445
0.899436
0.89941
0.899365
0.899303
0.899223
0.899124
0.899008
0.898874
0.898723
0.898555
0.898369
0.898166
0.897947
0.897711
0.897459
0.89719
0.896905
0.896605
0.896289
0.895958
0.895611
0.89525
0.894874
0.894484
0.894079
0.893661
0.893229
0.892783
0.892325
0.891853
0.891369
0.890872
0.890363
0.889843
0.88931
0.888767
0.888211
0.887646
0.887069
0.886482
0.885884
0.885277
0.88466
0.884033
0.883397
0.882753
0.882099
0.881437
0.880767
0.88009
0.879405
0.878712
0.878013
0.877308
0.876596
0.875879
0.875157
0.874429
0.873698
0.872962
0.872224
0.871482
0.870738
0.869993
0.869247
0.868501
0.867755
0.867012
0.866271
0.865535
0.864804
0.864079
0.863363
0.862655
0.861961
0.697914
0.766063
0.756847
0.746733
0.737443
0.729565
0.723109
0.71789
0.713692
0.710322
0.707617
0.705449
0.703715
0.702334
0.701241
0.700386
0.699727
0.69923
0.69887
0.698622
0.698471
0.698399
0.698395
0.698449
0.69855
0.698693
0.698869
0.699075
0.699306
0.699556
0.699824
0.700106
0.700399
0.700702
0.701012
0.701328
0.701647
0.701969
0.702293
0.702617
0.70294
0.703261
0.70358
0.703896
0.704207
0.704514
0.704815
0.70511
0.705399
0.70568
0.705954
0.706219
0.706475
0.706723
0.706961
0.707188
0.707405
0.707612
0.707807
0.707991
0.708163
0.708323
0.708471
0.708606
0.708729
0.708838
0.708935
0.709018
0.709089
0.709145
0.709188
0.709218
0.709234
0.709236
0.709225
0.7092
0.709161
0.709109
0.709044
0.708965
0.708872
0.708766
0.708647
0.708514
0.708368
0.708209
0.708037
0.707853
0.707656
0.707446
0.707224
0.70699
0.706745
0.706487
0.706218
0.705938
0.705646
0.705343
0.705029
0.704705
0.70437
0.704025
0.703669
0.703304
0.702928
0.702544
0.702149
0.701746
0.701333
0.700912
0.700482
0.700044
0.699597
0.699143
0.69868
0.69821
0.697732
0.697247
0.696755
0.696255
0.695749
0.695236
0.694716
0.69419
0.693658
0.69312
0.692576
0.692027
0.691472
0.690912
0.690347
0.689777
0.689203
0.688625
0.688043
0.687458
0.686869
0.686277
0.685683
0.685087
0.684489
0.683891
0.683292
0.682694
0.682098
0.681504
0.680914
0.680329
0.67975
0.679181
0.577792
0.629869
0.624815
0.618473
0.611861
0.605662
0.600151
0.595384
0.591314
0.587862
0.584943
0.582477
0.580395
0.578638
0.577155
0.575906
0.574855
0.573973
0.573237
0.572625
0.572121
0.57171
0.57138
0.571119
0.570919
0.570772
0.570671
0.570611
0.570585
0.570591
0.570623
0.570679
0.570756
0.57085
0.57096
0.571083
0.571218
0.571362
0.571514
0.571673
0.571838
0.572006
0.572178
0.572352
0.572527
0.572702
0.572877
0.57305
0.573221
0.573389
0.573554
0.573715
0.573871
0.574022
0.574167
0.574306
0.574439
0.574564
0.574682
0.574792
0.574893
0.574987
0.575071
0.575146
0.575213
0.575269
0.575316
0.575353
0.57538
0.575397
0.575404
0.5754
0.575386
0.575361
0.575326
0.575281
0.575225
0.575159
0.575082
0.574995
0.574898
0.574791
0.574673
0.574545
0.574406
0.574258
0.574099
0.573931
0.573753
0.573566
0.573369
0.573163
0.572948
0.572724
0.572491
0.572249
0.571998
0.571739
0.571472
0.571196
0.570913
0.570621
0.570322
0.570015
0.5697
0.569378
0.569049
0.568713
0.56837
0.56802
0.567664
0.567302
0.566933
0.566558
0.566178
0.565791
0.565399
0.565001
0.564598
0.56419
0.563776
0.563357
0.562933
0.562504
0.56207
0.561631
0.561187
0.56074
0.560287
0.55983
0.55937
0.558905
0.558436
0.557963
0.557487
0.557007
0.556524
0.556038
0.555549
0.555058
0.554565
0.55407
0.553574
0.553077
0.55258
0.552084
0.55159
0.551098
0.550611
0.550131
0.485834
0.526584
0.523848
0.520169
0.515883
0.511453
0.507192
0.503256
0.499707
0.496548
0.49376
0.491309
0.48916
0.487279
0.485632
0.484191
0.48293
0.481828
0.480865
0.480024
0.479291
0.478652
0.478097
0.477617
0.477202
0.476845
0.476541
0.476282
0.476065
0.475885
0.475737
0.475619
0.475527
0.475459
0.475411
0.475382
0.475369
0.475371
0.475386
0.475412
0.475448
0.475493
0.475545
0.475603
0.475666
0.475733
0.475803
0.475876
0.475949
0.476024
0.476098
0.476172
0.476244
0.476314
0.476381
0.476445
0.476505
0.476562
0.476613
0.47666
0.476701
0.476737
0.476766
0.476789
0.476805
0.476815
0.476817
0.476813
0.4768
0.47678
0.476753
0.476718
0.476674
0.476623
0.476564
0.476496
0.476421
0.476337
0.476246
0.476146
0.476039
0.475924
0.475801
0.475669
0.47553
0.475383
0.475228
0.475066
0.474896
0.474719
0.474534
0.474342
0.474143
0.473937
0.473725
0.473505
0.473279
0.473046
0.472807
0.472562
0.47231
0.472052
0.471788
0.471518
0.471242
0.470961
0.470674
0.470383
0.470085
0.469783
0.469476
0.469165
0.468848
0.468527
0.468202
0.467872
0.467539
0.467201
0.466859
0.466512
0.466162
0.465808
0.46545
0.465089
0.464723
0.464354
0.463981
0.463604
0.463224
0.46284
0.462452
0.462062
0.461667
0.46127
0.460869
0.460465
0.460059
0.459649
0.459236
0.458821
0.458404
0.457984
0.457563
0.45714
0.456717
0.456293
0.455871
0.455449
0.45503
0.454616
0.413465
0.445981
0.444437
0.442398
0.439827
0.43692
0.433897
0.430916
0.428076
0.425427
0.42299
0.420769
0.418756
0.416939
0.415301
0.413828
0.412505
0.411316
0.410248
0.409289
0.408429
0.407658
0.406965
0.406345
0.405789
0.405292
0.404847
0.40445
0.404096
0.403781
0.403501
0.403253
0.403035
0.402842
0.402674
0.402527
0.4024
0.40229
0.402196
0.402117
0.40205
0.401995
0.40195
0.401914
0.401886
0.401865
0.401849
0.401838
0.401831
0.401828
0.401827
0.401827
0.401829
0.401831
0.401832
0.401833
0.401832
0.40183
0.401825
0.401817
0.401806
0.401791
0.401773
0.40175
0.401723
0.401691
0.401654
0.401612
0.401564
0.401511
0.401452
0.401387
0.401316
0.401239
0.401156
0.401067
0.400972
0.40087
0.400762
0.400648
0.400528
0.400402
0.40027
0.400131
0.399987
0.399836
0.399679
0.399516
0.399348
0.399173
0.398993
0.398807
0.398616
0.398419
0.398218
0.39801
0.397798
0.397581
0.397358
0.397131
0.396899
0.396662
0.39642
0.396174
0.395924
0.395669
0.39541
0.395148
0.394881
0.394611
0.394337
0.394059
0.393778
0.393494
0.393207
0.392917
0.392623
0.392327
0.392027
0.391725
0.39142
0.391111
0.3908
0.390486
0.390169
0.389849
0.389527
0.389201
0.388873
0.388541
0.388207
0.38787
0.38753
0.387188
0.386842
0.386494
0.386143
0.385789
0.385433
0.385075
0.384714
0.384351
0.383986
0.38362
0.383252
0.382883
0.382515
0.382147
0.38178
0.381418
0.355262
0.381659
0.380704
0.379573
0.378115
0.376346
0.374365
0.37228
0.370179
0.368122
0.366151
0.364286
0.362541
0.360917
0.359415
0.35803
0.356756
0.355585
0.354512
0.353528
0.352626
0.3518
0.351045
0.350353
0.34972
0.349141
0.348611
0.348127
0.347684
0.347279
0.346909
0.346572
0.346263
0.345982
0.345726
0.345492
0.345279
0.345085
0.344909
0.344748
0.344602
0.344469
0.344348
0.344237
0.344136
0.344044
0.343959
0.343881
0.343809
0.343742
0.343679
0.343619
0.343562
0.343507
0.343454
0.343401
0.343349
0.343297
0.343244
0.34319
0.343135
0.343077
0.343018
0.342955
0.34289
0.342822
0.342751
0.342675
0.342596
0.342513
0.342426
0.342335
0.342239
0.342138
0.342033
0.341923
0.341809
0.34169
0.341565
0.341437
0.341303
0.341165
0.341022
0.340874
0.340722
0.340564
0.340403
0.340236
0.340065
0.339889
0.339709
0.339524
0.339336
0.339143
0.338946
0.338745
0.33854
0.338331
0.338118
0.337901
0.337681
0.337457
0.337229
0.336998
0.336764
0.336527
0.336286
0.336043
0.335797
0.335548
0.335296
0.335042
0.334786
0.334527
0.334266
0.334003
0.333738
0.33347
0.333201
0.332929
0.332656
0.33238
0.332102
0.331823
0.331541
0.331256
0.33097
0.330682
0.330391
0.330098
0.329803
0.329505
0.329205
0.328903
0.328599
0.328292
0.327983
0.327672
0.327358
0.327042
0.326724
0.326404
0.326082
0.325759
0.325434
0.325108
0.324782
0.324456
0.32413
0.323807
0.307632
0.329389
0.328727
0.328064
0.327253
0.326238
0.325031
0.32368
0.322239
0.320756
0.319272
0.317814
0.316402
0.315049
0.313763
0.312548
0.311404
0.31033
0.309326
0.308389
0.307514
0.3067
0.305941
0.305236
0.30458
0.30397
0.303403
0.302876
0.302387
0.301932
0.30151
0.301117
0.300753
0.300414
0.300099
0.299806
0.299534
0.299281
0.299046
0.298826
0.298622
0.298431
0.298252
0.298086
0.297929
0.297782
0.297644
0.297513
0.297389
0.297271
0.297158
0.29705
0.296946
0.296845
0.296747
0.296651
0.296557
0.296464
0.296371
0.296278
0.296186
0.296092
0.295998
0.295903
0.295805
0.295706
0.295605
0.295501
0.295395
0.295286
0.295174
0.295059
0.294941
0.29482
0.294695
0.294566
0.294434
0.294299
0.294159
0.294017
0.29387
0.29372
0.293566
0.293408
0.293247
0.293083
0.292914
0.292742
0.292567
0.292388
0.292205
0.292019
0.29183
0.291638
0.291442
0.291243
0.291041
0.290837
0.290629
0.290418
0.290205
0.289989
0.28977
0.289548
0.289324
0.289098
0.28887
0.288639
0.288406
0.288172
0.287936
0.287697
0.287458
0.287217
0.286974
0.28673
0.286484
0.286237
0.285989
0.28574
0.285489
0.285236
0.284982
0.284727
0.284471
0.284212
0.283953
0.283691
0.283428
0.283163
0.282897
0.282629
0.282359
0.282087
0.281813
0.281538
0.28126
0.280981
0.280699
0.280416
0.280131
0.279844
0.279556
0.279265
0.278974
0.278681
0.278388
0.278095
0.277802
0.277511
0.268097
0.286268
0.285766
0.285333
0.284867
0.284301
0.283608
0.282792
0.281873
0.280881
0.279841
0.278778
0.277711
0.276656
0.275625
0.274624
0.27366
0.272736
0.271854
0.271015
0.270219
0.269465
0.268753
0.26808
0.267445
0.266847
0.266283
0.265753
0.265253
0.264783
0.264341
0.263925
0.263534
0.263165
0.262819
0.262492
0.262185
0.261895
0.261622
0.261364
0.261121
0.260891
0.260673
0.260466
0.26027
0.260084
0.259906
0.259736
0.259573
0.259417
0.259267
0.259122
0.258981
0.258845
0.258712
0.258581
0.258454
0.258327
0.258203
0.258079
0.257957
0.257834
0.257711
0.257588
0.257465
0.25734
0.257214
0.257087
0.256958
0.256827
0.256694
0.256559
0.256422
0.256283
0.256141
0.255996
0.255849
0.255699
0.255546
0.255391
0.255232
0.255071
0.254907
0.25474
0.254571
0.254399
0.254224
0.254046
0.253865
0.253682
0.253496
0.253308
0.253117
0.252923
0.252727
0.252529
0.252328
0.252125
0.251919
0.251712
0.251502
0.251291
0.251077
0.250862
0.250644
0.250425
0.250205
0.249982
0.249759
0.249534
0.249308
0.249081
0.248853
0.248624
0.248394
0.248163
0.247931
0.247699
0.247466
0.247232
0.246997
0.246761
0.246525
0.246287
0.246049
0.24581
0.24557
0.245328
0.245086
0.244842
0.244597
0.244351
0.244103
0.243854
0.243603
0.243351
0.243098
0.242843
0.242586
0.242328
0.242068
0.241807
0.241544
0.24128
0.241015
0.240749
0.240482
0.240215
0.239948
0.239683
0.234893
0.250239
0.24984
0.249521
0.249226
0.248903
0.248517
0.248052
0.247506
0.246888
0.24621
0.245489
0.244737
0.243969
0.243193
0.24242
0.241657
0.240909
0.240179
0.239472
0.238788
0.23813
0.237498
0.236893
0.236313
0.23576
0.235232
0.234729
0.23425
0.233793
0.233359
0.232947
0.232554
0.232181
0.231826
0.231488
0.231167
0.230861
0.23057
0.230292
0.230028
0.229775
0.229534
0.229303
0.229082
0.22887
0.228667
0.228471
0.228282
0.228099
0.227922
0.227751
0.227584
0.227422
0.227263
0.227107
0.226954
0.226803
0.226654
0.226507
0.226361
0.226216
0.226071
0.225927
0.225782
0.225637
0.225492
0.225346
0.225198
0.22505
0.224901
0.22475
0.224597
0.224443
0.224287
0.224129
0.223969
0.223807
0.223643
0.223477
0.223308
0.223138
0.222965
0.222791
0.222614
0.222435
0.222254
0.222071
0.221886
0.221698
0.221509
0.221317
0.221124
0.220929
0.220732
0.220533
0.220332
0.220129
0.219925
0.219719
0.219512
0.219303
0.219093
0.218881
0.218668
0.218454
0.218239
0.218022
0.217805
0.217587
0.217368
0.217149
0.216929
0.216708
0.216487
0.216266
0.216044
0.215822
0.215599
0.215377
0.215153
0.21493
0.214706
0.214482
0.214257
0.214031
0.213805
0.213579
0.213351
0.213123
0.212894
0.212665
0.212434
0.212202
0.211969
0.211735
0.2115
0.211264
0.211026
0.210788
0.210548
0.210307
0.210064
0.209821
0.209576
0.209331
0.209085
0.208839
0.208593
0.208348
0.206729
0.219812
0.219489
0.219236
0.219023
0.218821
0.218601
0.218343
0.218036
0.217676
0.217266
0.216811
0.216318
0.215796
0.215252
0.214694
0.214127
0.213557
0.212989
0.212427
0.211874
0.211331
0.210801
0.210285
0.209785
0.2093
0.208832
0.208379
0.207944
0.207524
0.207121
0.206733
0.20636
0.206003
0.205659
0.20533
0.205013
0.204709
0.204417
0.204136
0.203867
0.203607
0.203357
0.203116
0.202884
0.20266
0.202443
0.202233
0.202029
0.201831
0.201638
0.20145
0.201267
0.201087
0.200912
0.200739
0.200569
0.200401
0.200236
0.200072
0.199909
0.199748
0.199587
0.199427
0.199267
0.199107
0.198948
0.198787
0.198627
0.198465
0.198303
0.19814
0.197975
0.19781
0.197643
0.197475
0.197305
0.197134
0.196961
0.196787
0.196611
0.196433
0.196254
0.196073
0.19589
0.195706
0.19552
0.195333
0.195144
0.194953
0.194761
0.194567
0.194372
0.194175
0.193977
0.193778
0.193577
0.193374
0.193171
0.192966
0.19276
0.192554
0.192346
0.192137
0.191927
0.191716
0.191505
0.191293
0.19108
0.190867
0.190653
0.190439
0.190225
0.190011
0.189797
0.189582
0.189368
0.189153
0.188939
0.188724
0.188509
0.188295
0.18808
0.187866
0.187651
0.187436
0.18722
0.187005
0.186789
0.186573
0.186356
0.186139
0.185921
0.185702
0.185483
0.185263
0.185042
0.18482
0.184598
0.184374
0.18415
0.183925
0.183698
0.183471
0.183243
0.183015
0.182786
0.182557
0.182328
0.1821
0.182641
0.193883
0.193621
0.193411
0.193241
0.193096
0.192958
0.19281
0.19264
0.192442
0.192209
0.191943
0.191643
0.191314
0.190959
0.190583
0.19019
0.189785
0.18937
0.188951
0.188529
0.188107
0.187687
0.187272
0.186863
0.186461
0.186067
0.185681
0.185305
0.184939
0.184582
0.184236
0.1839
0.183574
0.183258
0.182952
0.182656
0.182368
0.18209
0.18182
0.181559
0.181306
0.18106
0.180822
0.18059
0.180365
0.180146
0.179932
0.179724
0.179521
0.179322
0.179127
0.178936
0.178748
0.178564
0.178382
0.178202
0.178025
0.17785
0.177676
0.177504
0.177332
0.177162
0.176992
0.176822
0.176653
0.176483
0.176314
0.176144
0.175974
0.175803
0.175632
0.175459
0.175286
0.175112
0.174937
0.174761
0.174583
0.174404
0.174225
0.174043
0.173861
0.173677
0.173492
0.173306
0.173118
0.172929
0.172739
0.172547
0.172355
0.172161
0.171966
0.171769
0.171572
0.171373
0.171174
0.170973
0.170772
0.170569
0.170366
0.170161
0.169956
0.169751
0.169544
0.169337
0.169129
0.168921
0.168713
0.168504
0.168295
0.168085
0.167876
0.167667
0.167458
0.167248
0.167039
0.16683
0.166622
0.166413
0.166205
0.165997
0.16579
0.165582
0.165375
0.165167
0.16496
0.164753
0.164546
0.164339
0.164132
0.163925
0.163717
0.163509
0.163301
0.163093
0.162884
0.162674
0.162464
0.162253
0.162042
0.16183
0.161617
0.161404
0.16119
0.160975
0.16076
0.160545
0.16033
0.160115
0.159901
0.161891
0.171617
0.171404
0.171229
0.171086
0.170969
0.170868
0.170773
0.170675
0.170566
0.17044
0.170293
0.170124
0.169932
0.169718
0.169483
0.169231
0.168962
0.16868
0.168387
0.168086
0.167778
0.167466
0.167152
0.166836
0.166521
0.166207
0.165896
0.165588
0.165284
0.164985
0.164691
0.164403
0.16412
0.163843
0.163572
0.163307
0.163048
0.162795
0.162548
0.162306
0.16207
0.16184
0.161614
0.161393
0.161177
0.160966
0.160758
0.160554
0.160354
0.160158
0.159964
0.159774
0.159586
0.1594
0.159216
0.159035
0.158855
0.158676
0.158499
0.158323
0.158147
0.157972
0.157798
0.157624
0.15745
0.157276
0.157102
0.156927
0.156753
0.156578
0.156402
0.156225
0.156048
0.15587
0.155691
0.155512
0.155331
0.155149
0.154967
0.154783
0.154598
0.154412
0.154225
0.154037
0.153848
0.153658
0.153467
0.153275
0.153081
0.152887
0.152692
0.152496
0.152299
0.152101
0.151903
0.151703
0.151503
0.151302
0.151101
0.150899
0.150696
0.150493
0.150289
0.150085
0.14988
0.149676
0.149471
0.149265
0.14906
0.148855
0.14865
0.148445
0.14824
0.148035
0.147831
0.147627
0.147423
0.14722
0.147017
0.146815
0.146613
0.146411
0.14621
0.146009
0.145808
0.145608
0.145407
0.145207
0.145008
0.144808
0.144608
0.144408
0.144208
0.144008
0.143808
0.143608
0.143407
0.143206
0.143004
0.142802
0.1426
0.142397
0.142194
0.141991
0.141787
0.141583
0.14138
0.141176
0.140974
0.143906
0.152369
0.152196
0.152051
0.151929
0.151829
0.151746
0.151674
0.151609
0.151544
0.151474
0.151396
0.151306
0.151202
0.151082
0.150948
0.150798
0.150634
0.150457
0.150267
0.150068
0.149858
0.149642
0.149418
0.14919
0.148958
0.148722
0.148485
0.148247
0.148009
0.147771
0.147535
0.1473
0.147066
0.146835
0.146607
0.146381
0.146158
0.145938
0.145721
0.145507
0.145297
0.145089
0.144885
0.144683
0.144484
0.144287
0.144094
0.143902
0.143713
0.143526
0.143341
0.143158
0.142976
0.142796
0.142617
0.14244
0.142263
0.142087
0.141912
0.141737
0.141563
0.141389
0.141215
0.141042
0.140868
0.140694
0.14052
0.140345
0.14017
0.139994
0.139818
0.139641
0.139463
0.139285
0.139106
0.138926
0.138745
0.138563
0.13838
0.138197
0.138012
0.137827
0.13764
0.137453
0.137264
0.137075
0.136885
0.136694
0.136502
0.13631
0.136116
0.135922
0.135727
0.135531
0.135335
0.135138
0.13494
0.134742
0.134544
0.134344
0.134145
0.133945
0.133745
0.133544
0.133343
0.133142
0.132941
0.13274
0.132539
0.132338
0.132137
0.131936
0.131736
0.131536
0.131336
0.131137
0.130938
0.13074
0.130542
0.130344
0.130147
0.129951
0.129755
0.129559
0.129364
0.12917
0.128976
0.128782
0.128588
0.128395
0.128202
0.128009
0.127816
0.127623
0.12743
0.127237
0.127044
0.126851
0.126658
0.126465
0.126271
0.126077
0.125883
0.125689
0.125495
0.125301
0.125107
0.124913
0.124721
0.128236
0.135636
0.135496
0.135376
0.135272
0.135185
0.135112
0.135052
0.135
0.134954
0.134911
0.134867
0.134819
0.134765
0.134703
0.134632
0.13455
0.134459
0.134356
0.134244
0.134122
0.133991
0.133852
0.133705
0.133551
0.133391
0.133227
0.133057
0.132885
0.132709
0.13253
0.13235
0.132169
0.131986
0.131803
0.13162
0.131437
0.131254
0.131072
0.13089
0.130709
0.130529
0.13035
0.130171
0.129994
0.129818
0.129643
0.129469
0.129295
0.129123
0.128951
0.128781
0.12861
0.128441
0.128271
0.128103
0.127934
0.127766
0.127598
0.12743
0.127261
0.127093
0.126925
0.126756
0.126587
0.126417
0.126247
0.126077
0.125906
0.125734
0.125562
0.125388
0.125215
0.12504
0.124864
0.124688
0.12451
0.124332
0.124153
0.123973
0.123792
0.12361
0.123428
0.123244
0.12306
0.122874
0.122688
0.122501
0.122313
0.122124
0.121935
0.121745
0.121554
0.121363
0.121171
0.120978
0.120785
0.120591
0.120397
0.120203
0.120008
0.119813
0.119617
0.119421
0.119225
0.119029
0.118833
0.118636
0.11844
0.118243
0.118047
0.117851
0.117655
0.11746
0.117265
0.11707
0.116876
0.116682
0.116488
0.116295
0.116103
0.115911
0.11572
0.115529
0.115339
0.115149
0.11496
0.114771
0.114583
0.114395
0.114208
0.114021
0.113834
0.113647
0.113461
0.113275
0.113089
0.112903
0.112717
0.112531
0.112345
0.112159
0.111973
0.111787
0.111601
0.111415
0.111229
0.111044
0.110859
0.110676
0.114519
0.121017
0.120904
0.120805
0.120718
0.120642
0.120578
0.120523
0.120478
0.120439
0.120406
0.120377
0.120348
0.120319
0.120287
0.120252
0.120211
0.120164
0.120111
0.120051
0.119983
0.119909
0.119827
0.119738
0.119643
0.119542
0.119435
0.119323
0.119206
0.119085
0.11896
0.118831
0.118699
0.118564
0.118427
0.118288
0.118147
0.118004
0.11786
0.117714
0.117568
0.11742
0.117272
0.117123
0.116974
0.116824
0.116673
0.116522
0.11637
0.116218
0.116066
0.115913
0.11576
0.115606
0.115452
0.115297
0.115142
0.114986
0.11483
0.114672
0.114515
0.114356
0.114197
0.114037
0.113876
0.113715
0.113552
0.113389
0.113225
0.11306
0.112894
0.112727
0.112559
0.11239
0.11222
0.112049
0.111877
0.111704
0.111531
0.111356
0.11118
0.111004
0.110826
0.110647
0.110468
0.110288
0.110107
0.109925
0.109742
0.109558
0.109374
0.109189
0.109004
0.108817
0.108631
0.108444
0.108256
0.108067
0.107879
0.10769
0.1075
0.107311
0.107121
0.10693
0.10674
0.106549
0.106359
0.106168
0.105977
0.105787
0.105596
0.105406
0.105215
0.105026
0.104836
0.104647
0.104458
0.10427
0.104082
0.103894
0.103707
0.103521
0.103335
0.10315
0.102965
0.102781
0.102597
0.102414
0.102232
0.10205
0.101868
0.101687
0.101506
0.101325
0.101145
0.100965
0.100785
0.100606
0.100427
0.100248
0.100068
0.0998895
0.0997106
0.0995319
0.0993533
0.099175
0.098997
0.0988194
0.0986424
0.098467
0.102462
0.10819
0.108099
0.108017
0.107944
0.10788
0.107823
0.107774
0.107732
0.107697
0.107668
0.107643
0.107622
0.107603
0.107584
0.107566
0.107546
0.107524
0.107499
0.10747
0.107436
0.107398
0.107355
0.107307
0.107254
0.107196
0.107133
0.107064
0.106992
0.106914
0.106832
0.106747
0.106657
0.106564
0.106467
0.106367
0.106264
0.106158
0.10605
0.105939
0.105825
0.10571
0.105592
0.105472
0.105351
0.105228
0.105103
0.104976
0.104848
0.104718
0.104587
0.104454
0.10432
0.104184
0.104048
0.103909
0.10377
0.103629
0.103487
0.103344
0.103199
0.103053
0.102906
0.102758
0.102608
0.102457
0.102305
0.102152
0.101997
0.101841
0.101684
0.101526
0.101367
0.101206
0.101044
0.100881
0.100717
0.100552
0.100386
0.100219
0.100051
0.0998812
0.0997108
0.0995394
0.0993671
0.0991938
0.0990196
0.0988445
0.0986687
0.0984921
0.0983148
0.0981368
0.0979582
0.0977789
0.0975991
0.0974187
0.0972378
0.0970564
0.0968746
0.0966923
0.0965097
0.0963268
0.0961436
0.0959602
0.0957766
0.0955928
0.0954089
0.095225
0.095041
0.0948571
0.0946733
0.0944896
0.094306
0.0941227
0.0939396
0.0937569
0.0935744
0.0933924
0.0932108
0.0930296
0.0928488
0.0926686
0.0924889
0.0923097
0.092131
0.0919528
0.0917752
0.0915981
0.0914215
0.0912454
0.0910697
0.0908946
0.0907198
0.0905455
0.0903715
0.0901978
0.0900245
0.0898515
0.0896787
0.0895061
0.0893337
0.0891615
0.0889896
0.0888178
0.0886463
0.0884752
0.0883044
0.0881342
0.0879646
0.0877968
0.0918277
0.096893
0.0968196
0.0967526
0.0966919
0.0966371
0.0965881
0.0965447
0.0965067
0.0964739
0.0964461
0.0964228
0.0964034
0.0963871
0.0963734
0.0963613
0.0963501
0.096339
0.0963273
0.0963144
0.0962997
0.0962826
0.0962628
0.0962399
0.0962137
0.0961838
0.0961503
0.0961129
0.0960716
0.0960264
0.0959773
0.0959243
0.0958675
0.095807
0.0957428
0.095675
0.0956037
0.0955291
0.0954512
0.0953701
0.095286
0.0951988
0.0951088
0.095016
0.0949205
0.0948224
0.0947217
0.0946186
0.094513
0.0944052
0.0942951
0.0941828
0.0940683
0.0939517
0.0938331
0.0937126
0.09359
0.0934656
0.0933392
0.0932111
0.0930812
0.0929495
0.092816
0.0926809
0.0925442
0.0924058
0.0922658
0.0921242
0.0919811
0.0918365
0.0916904
0.0915429
0.091394
0.0912437
0.091092
0.090939
0.0907847
0.0906291
0.0904724
0.0903144
0.0901552
0.0899949
0.0898335
0.089671
0.0895074
0.0893428
0.0891773
0.0890109
0.0888437
0.0886757
0.0885069
0.0883374
0.0881671
0.0879962
0.0878247
0.0876526
0.08748
0.0873068
0.0871332
0.0869592
0.0867848
0.08661
0.0864349
0.0862595
0.0860839
0.0859081
0.0857322
0.0855562
0.0853801
0.085204
0.0850279
0.0848519
0.084676
0.0845002
0.0843247
0.0841493
0.0839743
0.0837995
0.0836251
0.083451
0.0832773
0.0831041
0.0829312
0.0827589
0.0825869
0.0824155
0.0822446
0.0820741
0.0819041
0.0817345
0.0815655
0.0813968
0.0812286
0.0810608
0.0808934
0.0807264
0.0805597
0.0803933
0.0802272
0.0800614
0.0798958
0.0797306
0.0795655
0.0794008
0.0792363
0.0790723
0.0789087
0.0787456
0.0785833
0.0784229
0.0824182
0.0869104
0.0868511
0.0867962
0.0867459
0.0866999
0.086658
0.0866201
0.0865862
0.0865562
0.08653
0.0865075
0.0864884
0.0864725
0.0864594
0.0864486
0.0864396
0.0864321
0.0864254
0.086419
0.0864125
0.0864055
0.0863973
0.0863878
0.0863764
0.086363
0.0863472
0.0863288
0.0863076
0.0862835
0.0862562