/*--------------------------------*- C++ -*----------------------------------*\
| =========                 |                                                 |
| \\      /  F ield         | OpenFOAM: The Open Source CFD Toolbox           |
|  \\    /   O peration     | Version:  5.x                                   |
|   \\  /    A nd           | Web:      www.OpenFOAM.org                      |
|    \\/     M anipulation  |                                                 |
\*---------------------------------------------------------------------------*/
FoamFile
{
    version     2.0;
    format      ascii;
    class       volScalarField;
    location    "0";
    object      k;
}
// * * * * * * * * * * * * * * * * * * * * * * * * * * * * * * * * * * * * * //

dimensions      [0 2 -2 0 0 0 0];

internalField   nonuniform List<scalar> 
86400
(
1.35798
1.25676
1.25816
1.26106
1.26405
1.26686
1.26944
1.2718
1.27396
1.27595
1.27779
1.2795
1.28109
1.28258
1.28398
1.2853
1.28655
1.28773
1.28885
1.28991
1.29093
1.2919
1.29282
1.29371
1.29456
1.29538
1.29616
1.29692
1.29764
1.29834
1.29902
1.29967
1.3003
1.30092
1.30151
1.30208
1.30263
1.30317
1.30369
1.30419
1.30468
1.30516
1.30561
1.30606
1.30649
1.3069
1.3073
1.30769
1.30806
1.30842
1.30876
1.30909
1.3094
1.3097
1.30999
1.31025
1.31051
1.31075
1.31097
1.31117
1.31136
1.31153
1.31169
1.31183
1.31195
1.31205
1.31214
1.31221
1.31226
1.31229
1.31231
1.3123
1.31228
1.31224
1.31218
1.3121
1.312
1.31189
1.31176
1.3116
1.31143
1.31124
1.31104
1.31081
1.31057
1.31031
1.31003
1.30974
1.30942
1.30909
1.30875
1.30839
1.30801
1.30761
1.3072
1.30678
1.30634
1.30588
1.30541
1.30493
1.30443
1.30392
1.3034
1.30286
1.30231
1.30175
1.30118
1.3006
1.3
1.2994
1.29878
1.29816
1.29752
1.29688
1.29623
1.29557
1.2949
1.29422
1.29354
1.29285
1.29215
1.29145
1.29074
1.29003
1.28931
1.28859
1.28787
1.28714
1.28642
1.28569
1.28496
1.28424
1.28351
1.28279
1.28208
1.28137
1.28066
1.27996
1.27927
1.27859
1.27792
1.27726
1.27661
1.27597
1.27534
1.27472
1.27411
1.27351
1.27293
1.27238
1.35635
1.32883
1.32026
1.31756
1.31716
1.31772
1.31871
1.31989
1.32115
1.32243
1.32369
1.32493
1.32614
1.32731
1.32843
1.32952
1.33057
1.33158
1.33255
1.33348
1.33439
1.33526
1.3361
1.33691
1.33769
1.33845
1.33918
1.33989
1.34058
1.34125
1.34189
1.34252
1.34313
1.34372
1.34429
1.34485
1.34539
1.34591
1.34642
1.34692
1.34739
1.34786
1.34831
1.34875
1.34917
1.34958
1.34998
1.35036
1.35072
1.35108
1.35141
1.35174
1.35205
1.35234
1.35262
1.35288
1.35313
1.35336
1.35357
1.35377
1.35395
1.35411
1.35425
1.35438
1.35449
1.35458
1.35466
1.35471
1.35475
1.35477
1.35476
1.35474
1.3547
1.35465
1.35457
1.35447
1.35435
1.35422
1.35406
1.35389
1.3537
1.35348
1.35325
1.35301
1.35274
1.35245
1.35215
1.35183
1.35149
1.35114
1.35076
1.35037
1.34997
1.34954
1.3491
1.34865
1.34818
1.34769
1.34719
1.34668
1.34615
1.34561
1.34505
1.34448
1.3439
1.34331
1.3427
1.34208
1.34146
1.34082
1.34016
1.3395
1.33883
1.33815
1.33746
1.33676
1.33605
1.33533
1.33461
1.33387
1.33313
1.33238
1.33163
1.33087
1.3301
1.32933
1.32855
1.32777
1.32699
1.3262
1.32541
1.32462
1.32383
1.32304
1.32225
1.32147
1.32068
1.3199
1.31913
1.31836
1.31759
1.31684
1.31609
1.31535
1.31462
1.31389
1.31318
1.31247
1.31177
1.31108
1.36437
1.33431
1.31943
1.31152
1.30717
1.30473
1.30337
1.30266
1.30238
1.30238
1.30256
1.30288
1.30328
1.30375
1.30427
1.30481
1.30537
1.30594
1.30652
1.3071
1.30769
1.30826
1.30883
1.3094
1.30996
1.3105
1.31104
1.31157
1.3121
1.31261
1.31311
1.3136
1.31408
1.31455
1.31501
1.31546
1.3159
1.31633
1.31675
1.31716
1.31756
1.31794
1.31832
1.31869
1.31904
1.31939
1.31972
1.32004
1.32035
1.32064
1.32093
1.3212
1.32145
1.32169
1.32192
1.32214
1.32233
1.32252
1.32268
1.32283
1.32297
1.32309
1.32319
1.32327
1.32334
1.32339
1.32342
1.32343
1.32343
1.3234
1.32336
1.3233
1.32322
1.32312
1.323
1.32287
1.32271
1.32254
1.32235
1.32214
1.32191
1.32166
1.3214
1.32112
1.32082
1.3205
1.32016
1.31981
1.31944
1.31905
1.31865
1.31823
1.31779
1.31734
1.31688
1.3164
1.3159
1.31539
1.31487
1.31433
1.31377
1.31321
1.31263
1.31204
1.31144
1.31082
1.3102
1.30956
1.30891
1.30825
1.30758
1.30691
1.30622
1.30552
1.30481
1.30409
1.30337
1.30264
1.30189
1.30114
1.30039
1.29962
1.29885
1.29808
1.29729
1.29651
1.29571
1.29491
1.29411
1.29331
1.2925
1.29169
1.29087
1.29006
1.28924
1.28842
1.28761
1.28679
1.28598
1.28517
1.28437
1.28356
1.28277
1.28198
1.28119
1.28041
1.27964
1.27888
1.27812
1.27737
1.36829
1.34904
1.33391
1.32374
1.31696
1.31233
1.30908
1.30676
1.30509
1.30389
1.30303
1.30243
1.30202
1.30177
1.30164
1.3016
1.30164
1.30174
1.30189
1.30208
1.3023
1.30255
1.30282
1.3031
1.3034
1.3037
1.30402
1.30434
1.30467
1.30499
1.30532
1.30565
1.30598
1.30631
1.30664
1.30696
1.30728
1.3076
1.30791
1.30822
1.30852
1.30882
1.30911
1.30939
1.30966
1.30993
1.31018
1.31043
1.31067
1.3109
1.31111
1.31132
1.31151
1.31169
1.31186
1.31201
1.31215
1.31228
1.31238
1.31248
1.31256
1.31262
1.31267
1.3127
1.31271
1.3127
1.31268
1.31264
1.31258
1.31251
1.31241
1.3123
1.31217
1.31202
1.31185
1.31166
1.31145
1.31123
1.31099
1.31073
1.31045
1.31015
1.30983
1.3095
1.30915
1.30879
1.3084
1.308
1.30758
1.30715
1.3067
1.30623
1.30575
1.30525
1.30474
1.30422
1.30368
1.30312
1.30256
1.30197
1.30138
1.30077
1.30015
1.29952
1.29888
1.29823
1.29756
1.29689
1.2962
1.2955
1.2948
1.29408
1.29336
1.29262
1.29188
1.29113
1.29037
1.2896
1.28883
1.28805
1.28726
1.28646
1.28566
1.28485
1.28404
1.28321
1.28239
1.28156
1.28072
1.27988
1.27904
1.27819
1.27734
1.27649
1.27564
1.27478
1.27393
1.27307
1.27221
1.27136
1.2705
1.26965
1.2688
1.26796
1.26712
1.26628
1.26545
1.26463
1.26381
1.263
1.36942
1.36015
1.34838
1.3385
1.33093
1.32517
1.32073
1.31727
1.31454
1.31236
1.31062
1.30921
1.30807
1.30715
1.30641
1.30582
1.30534
1.30497
1.30469
1.30447
1.30432
1.30422
1.30417
1.30415
1.30417
1.30422
1.30429
1.30438
1.30449
1.30462
1.30476
1.30491
1.30507
1.30524
1.30541
1.30559
1.30578
1.30596
1.30615
1.30634
1.30653
1.30672
1.3069
1.30708
1.30726
1.30744
1.3076
1.30777
1.30792
1.30807
1.3082
1.30833
1.30845
1.30856
1.30865
1.30873
1.3088
1.30886
1.3089
1.30893
1.30894
1.30894
1.30892
1.30889
1.30883
1.30877
1.30868
1.30858
1.30845
1.30831
1.30816
1.30798
1.30779
1.30757
1.30734
1.30709
1.30683
1.30654
1.30623
1.30591
1.30557
1.30521
1.30484
1.30444
1.30403
1.30361
1.30316
1.3027
1.30222
1.30173
1.30122
1.3007
1.30016
1.2996
1.29904
1.29845
1.29786
1.29725
1.29662
1.29599
1.29534
1.29468
1.29401
1.29332
1.29263
1.29192
1.2912
1.29048
1.28974
1.289
1.28824
1.28748
1.28671
1.28593
1.28514
1.28434
1.28354
1.28273
1.28191
1.28108
1.28025
1.27941
1.27857
1.27772
1.27686
1.276
1.27513
1.27426
1.27339
1.27251
1.27162
1.27073
1.26984
1.26895
1.26805
1.26715
1.26625
1.26534
1.26444
1.26354
1.26263
1.26173
1.26082
1.25992
1.25903
1.25813
1.25724
1.25635
1.25547
1.2546
1.36947
1.3665
1.35921
1.35131
1.34431
1.33843
1.33355
1.3295
1.32612
1.32329
1.3209
1.31887
1.31714
1.31567
1.3144
1.31332
1.31238
1.31158
1.31089
1.3103
1.30979
1.30936
1.30899
1.30868
1.30842
1.3082
1.30802
1.30788
1.30777
1.30768
1.30762
1.30758
1.30756
1.30756
1.30757
1.3076
1.30763
1.30768
1.30773
1.30779
1.30785
1.30792
1.30799
1.30806
1.30814
1.30821
1.30827
1.30834
1.3084
1.30845
1.3085
1.30854
1.30858
1.3086
1.30861
1.30862
1.30861
1.30859
1.30855
1.3085
1.30844
1.30836
1.30827
1.30816
1.30804
1.30789
1.30773
1.30756
1.30737
1.30715
1.30692
1.30668
1.30641
1.30613
1.30583
1.3055
1.30517
1.30481
1.30443
1.30404
1.30363
1.3032
1.30275
1.30229
1.30181
1.30131
1.3008
1.30027
1.29972
1.29916
1.29858
1.29799
1.29738
1.29676
1.29612
1.29548
1.29481
1.29414
1.29345
1.29275
1.29204
1.29131
1.29058
1.28983
1.28907
1.2883
1.28753
1.28674
1.28594
1.28514
1.28433
1.2835
1.28268
1.28184
1.281
1.28014
1.27929
1.27842
1.27755
1.27668
1.27579
1.27491
1.27401
1.27311
1.27221
1.2713
1.27038
1.26946
1.26854
1.26761
1.26668
1.26574
1.2648
1.26386
1.26291
1.26197
1.26101
1.26006
1.25911
1.25815
1.25719
1.25623
1.25528
1.25432
1.25336
1.25241
1.25146
1.25051
1.24957
1.24863
1.36924
1.3694
1.36606
1.36084
1.35532
1.35014
1.34549
1.3414
1.33781
1.33467
1.33191
1.32949
1.32737
1.32549
1.32383
1.32235
1.32104
1.31988
1.31885
1.31792
1.3171
1.31636
1.3157
1.31512
1.31459
1.31413
1.31371
1.31334
1.31301
1.31272
1.31246
1.31223
1.31203
1.31185
1.3117
1.31156
1.31145
1.31135
1.31126
1.31118
1.31111
1.31106
1.31101
1.31096
1.31092
1.31088
1.31084
1.3108
1.31076
1.31071
1.31067
1.31061
1.31055
1.31048
1.31041
1.31032
1.31023
1.31012
1.31
1.30987
1.30972
1.30956
1.30939
1.3092
1.30899
1.30877
1.30853
1.30828
1.308
1.30771
1.3074
1.30708
1.30673
1.30637
1.30599
1.30559
1.30517
1.30473
1.30428
1.30381
1.30332
1.30281
1.30228
1.30174
1.30118
1.30061
1.30001
1.29941
1.29878
1.29814
1.29749
1.29682
1.29614
1.29544
1.29473
1.294
1.29327
1.29252
1.29175
1.29098
1.29019
1.2894
1.28859
1.28777
1.28694
1.2861
1.28526
1.2844
1.28354
1.28266
1.28179
1.2809
1.28
1.2791
1.2782
1.27728
1.27636
1.27544
1.27451
1.27357
1.27263
1.27169
1.27073
1.26978
1.26882
1.26785
1.26688
1.26591
1.26493
1.26395
1.26296
1.26197
1.26098
1.25998
1.25898
1.25798
1.25697
1.25597
1.25496
1.25394
1.25293
1.25192
1.2509
1.24988
1.24887
1.24785
1.24684
1.24583
1.24482
1.24382
1.36899
1.37033
1.3697
1.36708
1.36343
1.35948
1.35559
1.35191
1.34851
1.3454
1.34258
1.34001
1.33769
1.33559
1.33368
1.33195
1.33037
1.32894
1.32764
1.32646
1.32538
1.32439
1.32349
1.32266
1.32191
1.32122
1.32059
1.32001
1.31948
1.319
1.31855
1.31814
1.31777
1.31742
1.31711
1.31682
1.31655
1.3163
1.31607
1.31586
1.31566
1.31548
1.3153
1.31514
1.31498
1.31482
1.31467
1.31453
1.31438
1.31423
1.31408
1.31393
1.31377
1.31361
1.31344
1.31326
1.31307
1.31287
1.31266
1.31244
1.3122
1.31196
1.31169
1.31142
1.31112
1.31081
1.31049
1.31015
1.30979
1.30941
1.30901
1.3086
1.30817
1.30772
1.30726
1.30677
1.30627
1.30575
1.30521
1.30465
1.30407
1.30348
1.30287
1.30224
1.3016
1.30094
1.30026
1.29957
1.29886
1.29813
1.29739
1.29664
1.29587
1.29509
1.2943
1.29349
1.29267
1.29184
1.29099
1.29014
1.28927
1.28839
1.28751
1.28661
1.2857
1.28478
1.28386
1.28293
1.28199
1.28104
1.28008
1.27912
1.27816
1.27718
1.2762
1.27522
1.27423
1.27324
1.27224
1.27124
1.27023
1.26922
1.2682
1.26719
1.26616
1.26513
1.2641
1.26307
1.26203
1.26099
1.25994
1.25889
1.25784
1.25678
1.25572
1.25466
1.25359
1.25253
1.25146
1.25039
1.24931
1.24824
1.24716
1.24608
1.245
1.24393
1.24285
1.24177
1.2407
1.23964
1.36881
1.37034
1.3712
1.37058
1.36875
1.36624
1.36341
1.36049
1.35761
1.35484
1.35221
1.34974
1.34743
1.34528
1.34329
1.34144
1.33973
1.33815
1.33668
1.33531
1.33405
1.33288
1.33179
1.33078
1.32984
1.32897
1.32816
1.32741
1.32671
1.32605
1.32544
1.32487
1.32434
1.32385
1.32338
1.32295
1.32254
1.32215
1.32179
1.32145
1.32112
1.32081
1.32052
1.32023
1.31996
1.31969
1.31943
1.31917
1.31892
1.31867
1.31841
1.31816
1.3179
1.31764
1.31737
1.31709
1.31681
1.31652
1.31621
1.3159
1.31557
1.31523
1.31487
1.3145
1.31412
1.31372
1.3133
1.31287
1.31242
1.31195
1.31147
1.31096
1.31044
1.3099
1.30934
1.30877
1.30817
1.30756
1.30693
1.30628
1.30561
1.30493
1.30422
1.30351
1.30277
1.30202
1.30125
1.30046
1.29966
1.29885
1.29802
1.29718
1.29632
1.29545
1.29456
1.29366
1.29275
1.29183
1.2909
1.28996
1.289
1.28803
1.28706
1.28607
1.28508
1.28408
1.28307
1.28205
1.28103
1.28
1.27896
1.27792
1.27687
1.27582
1.27476
1.2737
1.27264
1.27157
1.27049
1.26942
1.26834
1.26725
1.26617
1.26507
1.26398
1.26288
1.26178
1.26068
1.25957
1.25846
1.25735
1.25624
1.25512
1.254
1.25287
1.25174
1.25061
1.24948
1.24835
1.24721
1.24607
1.24493
1.24379
1.24265
1.24151
1.24036
1.23922
1.23808
1.23694
1.2358
1.36868
1.37
1.37148
1.37212
1.37176
1.37061
1.36894
1.36695
1.3648
1.36259
1.36038
1.35821
1.35611
1.3541
1.35218
1.35036
1.34864
1.34702
1.34549
1.34404
1.34268
1.3414
1.3402
1.33907
1.338
1.337
1.33606
1.33517
1.33433
1.33355
1.3328
1.3321
1.33144
1.33081
1.33022
1.32966
1.32912
1.32862
1.32813
1.32767
1.32723
1.3268
1.32639
1.326
1.32561
1.32524
1.32487
1.32451
1.32415
1.3238
1.32344
1.32309
1.32273
1.32237
1.322
1.32163
1.32125
1.32086
1.32046
1.32004
1.31962
1.31919
1.31874
1.31827
1.31779
1.3173
1.31679
1.31626
1.31571
1.31515
1.31457
1.31397
1.31336
1.31272
1.31207
1.3114
1.3107
1.31
1.30927
1.30852
1.30776
1.30698
1.30618
1.30537
1.30453
1.30369
1.30282
1.30194
1.30104
1.30013
1.2992
1.29826
1.29731
1.29634
1.29536
1.29437
1.29336
1.29235
1.29132
1.29028
1.28923
1.28817
1.2871
1.28602
1.28494
1.28384
1.28274
1.28163
1.28052
1.2794
1.27827
1.27714
1.27601
1.27487
1.27373
1.27258
1.27143
1.27028
1.26912
1.26797
1.26681
1.26564
1.26448
1.26331
1.26214
1.26096
1.25979
1.25861
1.25743
1.25625
1.25506
1.25387
1.25268
1.25149
1.25029
1.2491
1.2479
1.24669
1.24549
1.24428
1.24308
1.24187
1.24066
1.23944
1.23823
1.23702
1.23581
1.23459
1.23338
1.23218
1.36861
1.36961
1.37117
1.37244
1.37307
1.37301
1.3724
1.37136
1.37003
1.3685
1.36686
1.36515
1.36342
1.36169
1.36
1.35834
1.35674
1.35519
1.3537
1.35228
1.35092
1.34961
1.34837
1.34719
1.34606
1.34499
1.34397
1.34299
1.34207
1.34119
1.34035
1.33955
1.33879
1.33806
1.33736
1.3367
1.33606
1.33545
1.33487
1.33431
1.33376
1.33324
1.33273
1.33223
1.33175
1.33127
1.3308
1.33034
1.32989
1.32944
1.32899
1.32853
1.32808
1.32762
1.32716
1.32669
1.32622
1.32573
1.32524
1.32473
1.32421
1.32368
1.32314
1.32258
1.322
1.32141
1.3208
1.32018
1.31954
1.31888
1.3182
1.3175
1.31679
1.31606
1.3153
1.31453
1.31374
1.31294
1.31211
1.31127
1.3104
1.30952
1.30862
1.30771
1.30678
1.30583
1.30486
1.30388
1.30288
1.30187
1.30084
1.2998
1.29874
1.29767
1.29659
1.2955
1.29439
1.29328
1.29215
1.29101
1.28986
1.2887
1.28753
1.28635
1.28517
1.28398
1.28278
1.28157
1.28036
1.27915
1.27793
1.2767
1.27547
1.27424
1.27301
1.27177
1.27053
1.26929
1.26805
1.2668
1.26555
1.2643
1.26305
1.2618
1.26054
1.25929
1.25803
1.25677
1.25551
1.25425
1.25298
1.25171
1.25045
1.24917
1.2479
1.24663
1.24535
1.24408
1.2428
1.24152
1.24023
1.23895
1.23767
1.23638
1.23509
1.23381
1.23252
1.23124
1.22995
1.22868
1.36857
1.36927
1.37065
1.37211
1.37326
1.37395
1.37417
1.37397
1.37342
1.37261
1.37159
1.37043
1.36918
1.36785
1.36649
1.36512
1.36374
1.36238
1.36104
1.35973
1.35845
1.35721
1.35601
1.35484
1.35372
1.35264
1.3516
1.3506
1.34964
1.34871
1.34782
1.34696
1.34614
1.34535
1.34459
1.34385
1.34314
1.34245
1.34179
1.34115
1.34052
1.33992
1.33932
1.33874
1.33817
1.33761
1.33706
1.33651
1.33597
1.33543
1.33489
1.33435
1.33381
1.33326
1.33271
1.33215
1.33158
1.331
1.33042
1.32982
1.32921
1.32858
1.32794
1.32729
1.32662
1.32593
1.32523
1.32451
1.32377
1.32301
1.32224
1.32144
1.32063
1.3198
1.31894
1.31807
1.31718
1.31628
1.31535
1.3144
1.31344
1.31245
1.31145
1.31043
1.3094
1.30834
1.30727
1.30619
1.30509
1.30397
1.30284
1.30169
1.30053
1.29936
1.29817
1.29697
1.29576
1.29454
1.29331
1.29206
1.29081
1.28955
1.28828
1.28699
1.28571
1.28441
1.28311
1.2818
1.28049
1.27917
1.27785
1.27653
1.2752
1.27387
1.27254
1.2712
1.26987
1.26853
1.26719
1.26585
1.26451
1.26317
1.26183
1.26048
1.25914
1.25779
1.25645
1.2551
1.25375
1.2524
1.25105
1.2497
1.24835
1.24699
1.24564
1.24428
1.24293
1.24157
1.24021
1.23885
1.23749
1.23612
1.23476
1.2334
1.23203
1.23067
1.22931
1.22794
1.22658
1.22523
1.36854
1.36901
1.37013
1.37152
1.37285
1.37394
1.37471
1.37514
1.37525
1.37509
1.37469
1.3741
1.37335
1.37249
1.37154
1.37052
1.36946
1.36837
1.36726
1.36615
1.36504
1.36394
1.36285
1.36178
1.36074
1.35971
1.35872
1.35774
1.3568
1.35588
1.35498
1.35412
1.35328
1.35246
1.35166
1.35089
1.35014
1.34941
1.3487
1.348
1.34732
1.34665
1.346
1.34535
1.34472
1.34409
1.34347
1.34285
1.34223
1.34162
1.341
1.34038
1.33976
1.33913
1.3385
1.33785
1.3372
1.33654
1.33586
1.33518
1.33448
1.33376
1.33303
1.33229
1.33153
1.33075
1.32995
1.32913
1.3283
1.32744
1.32657
1.32568
1.32477
1.32384
1.32288
1.32191
1.32092
1.31991
1.31888
1.31783
1.31676
1.31568
1.31457
1.31345
1.31231
1.31115
1.30997
1.30878
1.30757
1.30635
1.30511
1.30386
1.30259
1.30131
1.30002
1.29871
1.29739
1.29606
1.29472
1.29337
1.29201
1.29064
1.28926
1.28787
1.28648
1.28508
1.28367
1.28225
1.28084
1.27941
1.27799
1.27656
1.27513
1.27369
1.27226
1.27082
1.26938
1.26795
1.26651
1.26507
1.26363
1.26219
1.26075
1.25931
1.25787
1.25643
1.25499
1.25355
1.25211
1.25066
1.24922
1.24778
1.24634
1.2449
1.24345
1.24201
1.24057
1.23912
1.23768
1.23623
1.23479
1.23334
1.23189
1.23045
1.229
1.22756
1.22611
1.22467
1.22323
1.22179
1.36853
1.36883
1.36969
1.37088
1.37217
1.3734
1.37446
1.37529
1.37588
1.37623
1.37636
1.37628
1.37604
1.37564
1.37513
1.37451
1.37381
1.37305
1.37224
1.37139
1.37051
1.36962
1.36871
1.3678
1.36689
1.36599
1.36509
1.36421
1.36333
1.36247
1.36162
1.36079
1.35997
1.35917
1.35839
1.35762
1.35686
1.35612
1.35539
1.35467
1.35396
1.35326
1.35257
1.35188
1.3512
1.35053
1.34985
1.34918
1.34851
1.34783
1.34715
1.34647
1.34578
1.34508
1.34438
1.34366
1.34293
1.34219
1.34144
1.34067
1.33989
1.33909
1.33828
1.33744
1.33659
1.33572
1.33484
1.33393
1.333
1.33205
1.33109
1.3301
1.32909
1.32806
1.32701
1.32594
1.32485
1.32373
1.3226
1.32145
1.32028
1.31909
1.31788
1.31665
1.3154
1.31414
1.31286
1.31156
1.31024
1.30891
1.30757
1.30621
1.30483
1.30344
1.30204
1.30062
1.2992
1.29776
1.29631
1.29484
1.29337
1.29189
1.29041
1.28891
1.2874
1.28589
1.28438
1.28286
1.28133
1.2798
1.27826
1.27673
1.27519
1.27365
1.2721
1.27056
1.26902
1.26747
1.26593
1.26438
1.26284
1.2613
1.25976
1.25822
1.25667
1.25513
1.25359
1.25206
1.25052
1.24898
1.24744
1.2459
1.24437
1.24283
1.2413
1.23976
1.23822
1.23669
1.23515
1.23362
1.23208
1.23055
1.22902
1.22748
1.22595
1.22442
1.22289
1.22136
1.21984
1.21832
1.36852
1.3687
1.36934
1.3703
1.37144
1.37263
1.37377
1.3748
1.37568
1.37638
1.3769
1.37725
1.37743
1.37746
1.37735
1.37713
1.3768
1.37639
1.37591
1.37536
1.37476
1.37412
1.37345
1.37275
1.37203
1.37129
1.37055
1.3698
1.36904
1.36829
1.36754
1.36679
1.36604
1.3653
1.36456
1.36383
1.36311
1.36239
1.36167
1.36096
1.36026
1.35955
1.35885
1.35815
1.35745
1.35675
1.35605
1.35534
1.35463
1.35391
1.35318
1.35245
1.35171
1.35095
1.35019
1.34941
1.34862
1.34781
1.34699
1.34615
1.34529
1.34442
1.34353
1.34261
1.34168
1.34073
1.33975
1.33876
1.33774
1.33671
1.33565
1.33457
1.33346
1.33234
1.33119
1.33003
1.32884
1.32763
1.32639
1.32514
1.32387
1.32257
1.32126
1.31993
1.31858
1.31721
1.31582
1.31442
1.313
1.31156
1.3101
1.30863
1.30715
1.30565
1.30414
1.30262
1.30108
1.29953
1.29797
1.2964
1.29482
1.29323
1.29163
1.29002
1.2884
1.28678
1.28516
1.28352
1.28188
1.28024
1.2786
1.27695
1.2753
1.27365
1.272
1.27035
1.26869
1.26704
1.26539
1.26374
1.26209
1.26044
1.25879
1.25714
1.2555
1.25385
1.25221
1.25057
1.24893
1.24729
1.24565
1.24401
1.24238
1.24074
1.23911
1.23748
1.23585
1.23422
1.23259
1.23096
1.22933
1.2277
1.22608
1.22445
1.22283
1.22121
1.21959
1.21798
1.21636
1.21476
1.36853
1.36861
1.36908
1.36983
1.37078
1.37183
1.37292
1.37398
1.37498
1.37587
1.37664
1.37728
1.37778
1.37815
1.3784
1.37852
1.37855
1.37847
1.37831
1.37807
1.37777
1.3774
1.37699
1.37653
1.37604
1.37551
1.37496
1.37438
1.37379
1.37318
1.37257
1.37194
1.3713
1.37065
1.37
1.36935
1.36869
1.36803
1.36736
1.3667
1.36602
1.36534
1.36466
1.36397
1.36328
1.36257
1.36186
1.36114
1.36041
1.35967
1.35892
1.35815
1.35737
1.35658
1.35577
1.35494
1.3541
1.35323
1.35235
1.35145
1.35053
1.34959
1.34863
1.34764
1.34664
1.34561
1.34455
1.34348
1.34238
1.34126
1.34011
1.33895
1.33775
1.33654
1.3353
1.33404
1.33275
1.33145
1.33012
1.32877
1.3274
1.326
1.32459
1.32316
1.3217
1.32023
1.31874
1.31723
1.3157
1.31416
1.3126
1.31103
1.30943
1.30783
1.30621
1.30458
1.30293
1.30127
1.2996
1.29792
1.29623
1.29453
1.29282
1.2911
1.28937
1.28764
1.2859
1.28416
1.28241
1.28066
1.2789
1.27714
1.27538
1.27362
1.27186
1.27009
1.26833
1.26657
1.2648
1.26304
1.26128
1.25952
1.25777
1.25601
1.25426
1.25251
1.25076
1.24901
1.24726
1.24552
1.24378
1.24204
1.2403
1.23857
1.23683
1.2351
1.23337
1.23164
1.22991
1.22819
1.22646
1.22474
1.22302
1.2213
1.21958
1.21787
1.21616
1.21445
1.21275
1.21106
1.36853
1.36856
1.36889
1.36946
1.37022
1.3711
1.37206
1.37306
1.37405
1.37499
1.37588
1.37668
1.37739
1.378
1.3785
1.37891
1.37922
1.37944
1.37957
1.37962
1.37959
1.3795
1.37935
1.37915
1.37889
1.37859
1.37826
1.37788
1.37748
1.37705
1.37659
1.37612
1.37562
1.3751
1.37457
1.37403
1.37347
1.37289
1.3723
1.3717
1.37109
1.37046
1.36982
1.36917
1.3685
1.36782
1.36713
1.36641
1.36568
1.36494
1.36418
1.3634
1.3626
1.36178
1.36094
1.36007
1.35919
1.35829
1.35736
1.35641
1.35543
1.35443
1.35341
1.35236
1.35129
1.35019
1.34907
1.34792
1.34675
1.34555
1.34432
1.34307
1.3418
1.3405
1.33917
1.33782
1.33645
1.33505
1.33363
1.33218
1.33072
1.32923
1.32772
1.32619
1.32463
1.32306
1.32147
1.31986
1.31823
1.31658
1.31492
1.31324
1.31155
1.30983
1.30811
1.30637
1.30462
1.30285
1.30107
1.29929
1.29749
1.29568
1.29386
1.29203
1.2902
1.28835
1.28651
1.28465
1.28279
1.28093
1.27906
1.27719
1.27532
1.27345
1.27157
1.2697
1.26782
1.26595
1.26408
1.2622
1.26033
1.25846
1.2566
1.25473
1.25287
1.25101
1.24915
1.2473
1.24544
1.24359
1.24175
1.2399
1.23806
1.23622
1.23438
1.23255
1.23072
1.22889
1.22706
1.22523
1.22341
1.22159
1.21977
1.21795
1.21614
1.21433
1.21253
1.21073
1.20893
1.20715
1.36853
1.36852
1.36875
1.36918
1.36977
1.37049
1.3713
1.37217
1.37307
1.37398
1.37487
1.37573
1.37653
1.37727
1.37794
1.37854
1.37906
1.3795
1.37987
1.38016
1.38038
1.38053
1.38062
1.38066
1.38063
1.38056
1.38044
1.38028
1.38008
1.37983
1.37956
1.37925
1.37892
1.37855
1.37816
1.37774
1.3773
1.37684
1.37635
1.37584
1.37531
1.37476
1.37418
1.37359
1.37297
1.37233
1.37167
1.37098
1.37027
1.36954
1.36879
1.368
1.3672
1.36637
1.36551
1.36463
1.36372
1.36278
1.36182
1.36083
1.35981
1.35877
1.35769
1.35659
1.35546
1.3543
1.35312
1.3519
1.35066
1.34939
1.34809
1.34677
1.34541
1.34403
1.34263
1.3412
1.33974
1.33825
1.33675
1.33521
1.33366
1.33208
1.33047
1.32885
1.3272
1.32553
1.32385
1.32214
1.32041
1.31867
1.3169
1.31512
1.31333
1.31152
1.30969
1.30785
1.30599
1.30412
1.30224
1.30035
1.29844
1.29653
1.2946
1.29267
1.29073
1.28878
1.28682
1.28486
1.28289
1.28092
1.27895
1.27697
1.27499
1.27301
1.27102
1.26904
1.26705
1.26507
1.26308
1.2611
1.25912
1.25714
1.25517
1.25319
1.25122
1.24925
1.24729
1.24532
1.24336
1.24141
1.23945
1.2375
1.23555
1.23361
1.23167
1.22973
1.22779
1.22586
1.22393
1.222
1.22008
1.21816
1.21624
1.21433
1.21242
1.21052
1.20861
1.20672
1.20483
1.20296
1.36854
1.3685
1.36865
1.36897
1.36943
1.36999
1.37065
1.37138
1.37216
1.37298
1.3738
1.37463
1.37544
1.37623
1.37697
1.37767
1.37831
1.3789
1.37943
1.3799
1.38031
1.38066
1.38096
1.38119
1.38138
1.38151
1.38159
1.38162
1.38161
1.38156
1.38147
1.38133
1.38116
1.38095
1.38071
1.38043
1.38012
1.37978
1.37941
1.37901
1.37857
1.37811
1.37761
1.37709
1.37654
1.37595
1.37534
1.37469
1.37402
1.37331
1.37257
1.37181
1.37101
1.37018
1.36932
1.36842
1.3675
1.36654
1.36556
1.36454
1.36348
1.3624
1.36128
1.36014
1.35896
1.35775
1.35651
1.35523
1.35393
1.35259
1.35123
1.34984
1.34841
1.34696
1.34548
1.34397
1.34243
1.34087
1.33928
1.33767
1.33602
1.33436
1.33267
1.33096
1.32922
1.32746
1.32569
1.32389
1.32207
1.32023
1.31837
1.31649
1.3146
1.31269
1.31077
1.30883
1.30687
1.30491
1.30292
1.30093
1.29893
1.29691
1.29489
1.29285
1.29081
1.28876
1.2867
1.28463
1.28256
1.28048
1.2784
1.27632
1.27424
1.27215
1.27006
1.26797
1.26587
1.26378
1.26169
1.2596
1.25751
1.25543
1.25334
1.25126
1.24918
1.24711
1.24504
1.24297
1.2409
1.23884
1.23678
1.23472
1.23267
1.23062
1.22857
1.22653
1.22449
1.22246
1.22043
1.2184
1.21637
1.21435
1.21234
1.21033
1.20832
1.20632
1.20432
1.20233
1.20035
1.19838
1.36854
1.36849
1.36858
1.36882
1.36916
1.36961
1.37013
1.37072
1.37137
1.37207
1.3728
1.37355
1.37431
1.37506
1.3758
1.37653
1.37722
1.37788
1.3785
1.37908
1.37962
1.38011
1.38055
1.38094
1.38128
1.38158
1.38183
1.38203
1.38219
1.3823
1.38237
1.3824
1.38238
1.38232
1.38222
1.38208
1.38191
1.38169
1.38143
1.38113
1.3808
1.38043
1.38002
1.37957
1.37909
1.37856
1.378
1.37741
1.37677
1.3761
1.37539
1.37464
1.37386
1.37304
1.37218
1.37128
1.37035
1.36938
1.36837
1.36733
1.36625
1.36514
1.36399
1.3628
1.36158
1.36032
1.35903
1.35771
1.35635
1.35496
1.35353
1.35207
1.35059
1.34907
1.34752
1.34594
1.34433
1.34269
1.34103
1.33933
1.33761
1.33587
1.3341
1.3323
1.33049
1.32864
1.32678
1.32489
1.32299
1.32106
1.31912
1.31715
1.31517
1.31317
1.31115
1.30912
1.30707
1.30501
1.30294
1.30085
1.29875
1.29664
1.29452
1.29239
1.29025
1.2881
1.28594
1.28378
1.28161
1.27944
1.27726
1.27507
1.27289
1.2707
1.26851
1.26632
1.26412
1.26193
1.25974
1.25754
1.25535
1.25316
1.25098
1.24879
1.24661
1.24443
1.24225
1.24008
1.23791
1.23574
1.23358
1.23142
1.22927
1.22711
1.22497
1.22282
1.22068
1.21855
1.21642
1.21429
1.21217
1.21005
1.20793
1.20583
1.20372
1.20162
1.19953
1.19745
1.19537
1.19332
1.36855
1.36848
1.36854
1.3687
1.36896
1.36931
1.36972
1.37019
1.37072
1.3713
1.37191
1.37256
1.37323
1.37392
1.37461
1.3753
1.37598
1.37665
1.3773
1.37792
1.37852
1.37908
1.37961
1.3801
1.38056
1.38097
1.38134
1.38167
1.38196
1.3822
1.3824
1.38255
1.38267
1.38273
1.38276
1.38273
1.38267
1.38256
1.3824
1.3822
1.38196
1.38167
1.38134
1.38097
1.38054
1.38008
1.37957
1.37902
1.37842
1.37778
1.3771
1.37637
1.3756
1.37479
1.37394
1.37304
1.3721
1.37112
1.3701
1.36903
1.36793
1.36679
1.3656
1.36438
1.36312
1.36182
1.36049
1.35911
1.3577
1.35626
1.35478
1.35326
1.35172
1.35013
1.34852
1.34688
1.3452
1.34349
1.34176
1.33999
1.3382
1.33638
1.33454
1.33267
1.33077
1.32885
1.32691
1.32494
1.32296
1.32095
1.31892
1.31687
1.31481
1.31272
1.31062
1.30851
1.30637
1.30423
1.30207
1.29989
1.2977
1.2955
1.2933
1.29107
1.28885
1.28661
1.28436
1.28211
1.27985
1.27758
1.27531
1.27303
1.27075
1.26847
1.26618
1.2639
1.26161
1.25932
1.25703
1.25474
1.25245
1.25017
1.24788
1.2456
1.24332
1.24104
1.23877
1.23649
1.23423
1.23196
1.2297
1.22744
1.22519
1.22294
1.2207
1.21846
1.21622
1.21399
1.21176
1.20954
1.20732
1.2051
1.20289
1.20069
1.19849
1.1963
1.19412
1.19194
1.18977
1.18763
1.36855
1.36848
1.36851
1.36862
1.36881
1.36908
1.3694
1.36977
1.3702
1.37067
1.37117
1.37172
1.37229
1.37288
1.37349
1.37411
1.37474
1.37537
1.376
1.37661
1.37721
1.3778
1.37836
1.37889
1.3794
1.37987
1.38031
1.38072
1.38108
1.38141
1.3817
1.38194
1.38214
1.3823
1.38241
1.38247
1.38248
1.38245
1.38237
1.38225
1.38207
1.38184
1.38157
1.38125
1.38087
1.38045
1.37998
1.37946
1.37889
1.37827
1.3776
1.37688
1.37612
1.37531
1.37445
1.37355
1.37259
1.3716
1.37056
1.36947
1.36834
1.36716
1.36595
1.36469
1.36339
1.36205
1.36067
1.35924
1.35779
1.35629
1.35476
1.35319
1.35158
1.34994
1.34827
1.34656
1.34482
1.34305
1.34125
1.33942
1.33756
1.33567
1.33375
1.33181
1.32984
1.32785
1.32584
1.3238
1.32174
1.31965
1.31755
1.31543
1.31329
1.31113
1.30895
1.30675
1.30454
1.30232
1.30008
1.29782
1.29556
1.29328
1.29099
1.28869
1.28637
1.28405
1.28173
1.27939
1.27705
1.2747
1.27234
1.26998
1.26762
1.26525
1.26288
1.2605
1.25813
1.25575
1.25337
1.251
1.24862
1.24624
1.24387
1.2415
1.23913
1.23676
1.23439
1.23203
1.22967
1.22731
1.22496
1.22261
1.22027
1.21793
1.21559
1.21326
1.21093
1.20861
1.20629
1.20397
1.20166
1.19936
1.19706
1.19477
1.19248
1.1902
1.18792
1.18566
1.1834
1.18118
1.36856
1.36849
1.36849
1.36856
1.3687
1.3689
1.36915
1.36945
1.36978
1.37016
1.37057
1.37102
1.37149
1.37199
1.37251
1.37305
1.3736
1.37416
1.37473
1.3753
1.37586
1.37642
1.37696
1.37749
1.37799
1.37848
1.37893
1.37936
1.37975
1.38011
1.38043
1.38071
1.38095
1.38114
1.38129
1.3814
1.38145
1.38146
1.38141
1.38132
1.38117
1.38097
1.38072
1.38042
1.38006
1.37965
1.37919
1.37867
1.37811
1.37748
1.37681
1.37609
1.37531
1.37448
1.37361
1.37268
1.3717
1.37068
1.3696
1.36848
1.36731
1.3661
1.36484
1.36354
1.36219
1.36081
1.35937
1.3579
1.35639
1.35484
1.35325
1.35162
1.34996
1.34826
1.34653
1.34476
1.34296
1.34113
1.33926
1.33737
1.33544
1.33349
1.33151
1.3295
1.32747
1.32541
1.32332
1.32122
1.31909
1.31694
1.31476
1.31257
1.31036
1.30813
1.30588
1.30362
1.30134
1.29904
1.29673
1.29441
1.29207
1.28972
1.28735
1.28498
1.2826
1.28021
1.2778
1.2754
1.27298
1.27056
1.26813
1.26569
1.26325
1.26081
1.25836
1.25591
1.25346
1.251
1.24855
1.24609
1.24364
1.24118
1.23873
1.23628
1.23382
1.23137
1.22893
1.22648
1.22404
1.2216
1.21917
1.21673
1.21431
1.21188
1.20946
1.20705
1.20463
1.20223
1.19982
1.19743
1.19503
1.19265
1.19026
1.18789
1.18552
1.18315
1.1808
1.17845
1.17611
1.17382
1.36856
1.36849
1.36847
1.36852
1.36862
1.36877
1.36896
1.36919
1.36946
1.36976
1.37009
1.37045
1.37084
1.37125
1.37168
1.37214
1.37261
1.37309
1.37358
1.37407
1.37457
1.37506
1.37555
1.37603
1.37649
1.37693
1.37735
1.37775
1.37812
1.37845
1.37875
1.37901
1.37923
1.37941
1.37955
1.37963
1.37967
1.37966
1.3796
1.37949
1.37932
1.37911
1.37883
1.37851
1.37812
1.37769
1.37719
1.37665
1.37605
1.37539
1.37468
1.37392
1.3731
1.37223
1.37131
1.37033
1.36931
1.36823
1.36711
1.36594
1.36471
1.36345
1.36213
1.36077
1.35937
1.35792
1.35643
1.3549
1.35333
1.35172
1.35007
1.34838
1.34665
1.34489
1.3431
1.34126
1.3394
1.3375
1.33558
1.33362
1.33163
1.32961
1.32757
1.3255
1.3234
1.32128
1.31913
1.31696
1.31477
1.31256
1.31032
1.30807
1.30579
1.3035
1.30119
1.29886
1.29652
1.29416
1.29179
1.2894
1.287
1.28459
1.28216
1.27973
1.27728
1.27483
1.27236
1.26989
1.26741
1.26492
1.26243
1.25993
1.25743
1.25492
1.25241
1.24989
1.24737
1.24485
1.24233
1.23981
1.23729
1.23476
1.23224
1.22972
1.2272
1.22468
1.22216
1.21964
1.21713
1.21462
1.21211
1.20961
1.20711
1.20461
1.20212
1.19963
1.19714
1.19466
1.19219
1.18971
1.18725
1.18478
1.18233
1.17988
1.17743
1.17499
1.17256
1.17014
1.16774
1.16537
1.36857
1.36849
1.36847
1.36849
1.36856
1.36867
1.36882
1.369
1.36921
1.36945
1.36972
1.37001
1.37032
1.37065
1.37101
1.37138
1.37176
1.37216
1.37256
1.37297
1.37338
1.37379
1.37419
1.37459
1.37497
1.37533
1.37567
1.37599
1.37628
1.37653
1.37676
1.37694
1.37709
1.37719
1.37725
1.37726
1.37723
1.37714
1.377
1.37682
1.37657
1.37628
1.37593
1.37553
1.37507
1.37455
1.37399
1.37336
1.37268
1.37195
1.37116
1.37032
1.36942
1.36847
1.36747
1.36642
1.36532
1.36417
1.36296
1.36171
1.36042
1.35907
1.35768
1.35625
1.35477
1.35325
1.35168
1.35008
1.34843
1.34675
1.34503
1.34327
1.34147
1.33964
1.33778
1.33588
1.33395
1.33198
1.32999
1.32797
1.32591
1.32383
1.32173
1.31959
1.31744
1.31525
1.31305
1.31082
1.30857
1.30629
1.304
1.30169
1.29936
1.29701
1.29464
1.29226
1.28986
1.28745
1.28502