/*--------------------------------*- C++ -*----------------------------------*\
| =========                 |                                                 |
| \\      /  F ield         | OpenFOAM: The Open Source CFD Toolbox           |
|  \\    /   O peration     | Version:  5.x                                   |
|   \\  /    A nd           | Web:      www.OpenFOAM.org                      |
|    \\/     M anipulation  |                                                 |
\*---------------------------------------------------------------------------*/
FoamFile
{
    version     2.0;
    format      ascii;
    class       volScalarField;
    location    "0";
    object      nut;
}
// * * * * * * * * * * * * * * * * * * * * * * * * * * * * * * * * * * * * * //

dimensions      [0 2 -1 0 0 0 0];

internalField   nonuniform List<scalar> 
86400
(
0.0187771
0.00631215
0.00631566
0.00632294
0.00633042
0.00633745
0.00634391
0.0063498
0.0063552
0.00636016
0.00636474
0.006369
0.00637296
0.00637667
0.00638015
0.00638342
0.00638652
0.00638944
0.00639222
0.00639486
0.00639738
0.00639978
0.00640207
0.00640426
0.00640637
0.00640839
0.00641033
0.00641219
0.00641399
0.00641572
0.00641739
0.00641901
0.00642057
0.00642207
0.00642353
0.00642494
0.00642631
0.00642764
0.00642892
0.00643016
0.00643137
0.00643253
0.00643366
0.00643475
0.00643581
0.00643683
0.00643782
0.00643877
0.00643968
0.00644056
0.00644141
0.00644222
0.00644299
0.00644373
0.00644442
0.00644509
0.00644571
0.00644629
0.00644684
0.00644734
0.00644781
0.00644823
0.00644862
0.00644896
0.00644926
0.00644951
0.00644973
0.00644989
0.00645002
0.0064501
0.00645014
0.00645013
0.00645007
0.00644997
0.00644982
0.00644963
0.00644939
0.00644911
0.00644878
0.00644841
0.00644799
0.00644752
0.00644702
0.00644646
0.00644587
0.00644523
0.00644454
0.00644382
0.00644305
0.00644224
0.00644139
0.0064405
0.00643957
0.0064386
0.00643759
0.00643654
0.00643545
0.00643433
0.00643317
0.00643198
0.00643076
0.0064295
0.00642821
0.00642688
0.00642553
0.00642415
0.00642274
0.0064213
0.00641983
0.00641834
0.00641682
0.00641528
0.00641371
0.00641212
0.00641051
0.00640887
0.00640722
0.00640555
0.00640386
0.00640215
0.00640042
0.00639868
0.00639693
0.00639517
0.00639339
0.0063916
0.00638981
0.00638801
0.00638621
0.0063844
0.0063826
0.0063808
0.006379
0.00637721
0.00637543
0.00637366
0.00637191
0.00637017
0.00636846
0.00636676
0.00636509
0.00636345
0.00636183
0.00636023
0.00635866
0.00635712
0.00635559
0.0063541
0.00635265
0.00635128
0.0486194
0.0319637
0.0315598
0.0313358
0.0311956
0.0311011
0.0310343
0.0309855
0.0309491
0.0309214
0.0309002
0.0308839
0.0308713
0.0308616
0.0308543
0.0308487
0.0308447
0.0308419
0.0308401
0.0308391
0.0308388
0.0308391
0.0308398
0.030841
0.0308425
0.0308443
0.0308463
0.0308485
0.0308509
0.0308534
0.030856
0.0308588
0.0308615
0.0308644
0.0308673
0.0308702
0.0308731
0.030876
0.0308789
0.0308818
0.0308846
0.0308874
0.0308902
0.0308929
0.0308956
0.0308981
0.0309006
0.030903
0.0309052
0.0309074
0.0309095
0.0309114
0.0309132
0.0309148
0.0309163
0.0309177
0.0309189
0.0309199
0.0309207
0.0309214
0.0309219
0.0309222
0.0309223
0.0309222
0.0309219
0.0309214
0.0309207
0.0309197
0.0309186
0.0309173
0.0309157
0.0309139
0.0309119
0.0309096
0.0309072
0.0309045
0.0309016
0.0308985
0.0308951
0.0308916
0.0308878
0.0308838
0.0308796
0.0308752
0.0308706
0.0308658
0.0308608
0.0308556
0.0308502
0.0308447
0.0308389
0.0308329
0.0308268
0.0308205
0.030814
0.0308073
0.0308005
0.0307935
0.0307863
0.030779
0.0307715
0.0307639
0.0307562
0.0307483
0.0307402
0.0307321
0.0307238
0.0307154
0.0307068
0.0306981
0.0306893
0.0306804
0.0306714
0.0306623
0.0306531
0.0306437
0.0306343
0.0306247
0.0306151
0.0306054
0.0305955
0.0305856
0.0305756
0.0305655
0.0305554
0.0305451
0.0305348
0.0305244
0.030514
0.0305034
0.0304928
0.0304822
0.0304715
0.0304607
0.0304499
0.030439
0.0304281
0.0304171
0.0304062
0.0303952
0.0303841
0.0303731
0.0303621
0.030351
0.03034
0.0303291
0.0303182
0.0303074
0.0302966
0.0302861
0.0814067
0.0634071
0.0626887
0.0621971
0.0618217
0.0615248
0.0612851
0.0610887
0.0609256
0.0607886
0.0606724
0.0605731
0.0604874
0.0604131
0.0603484
0.0602916
0.0602416
0.0601975
0.0601584
0.0601237
0.0600927
0.0600651
0.0600403
0.0600182
0.0599984
0.0599806
0.0599646
0.0599502
0.0599373
0.0599256
0.0599152
0.0599058
0.0598973
0.0598897
0.0598829
0.0598767
0.0598712
0.0598662
0.0598616
0.0598575
0.0598538
0.0598504
0.0598472
0.0598443
0.0598415
0.0598389
0.0598364
0.0598339
0.0598314
0.0598289
0.0598264
0.0598238
0.059821
0.0598182
0.0598151
0.0598118
0.0598084
0.0598046
0.0598006
0.0597963
0.0597917
0.0597868
0.0597815
0.0597759
0.0597699
0.0597636
0.0597568
0.0597497
0.0597421
0.0597341
0.0597258
0.059717
0.0597077
0.059698
0.0596879
0.0596774
0.0596664
0.059655
0.0596432
0.059631
0.0596183
0.0596053
0.0595919
0.0595781
0.0595638
0.0595493
0.0595343
0.059519
0.0595033
0.0594873
0.0594709
0.0594542
0.0594371
0.0594198
0.0594021
0.0593842
0.0593659
0.0593474
0.0593286
0.0593095
0.0592902
0.0592706
0.0592508
0.0592307
0.0592104
0.0591899
0.0591692
0.0591483
0.0591272
0.0591059
0.0590844
0.0590628
0.059041
0.059019
0.0589969
0.0589746
0.0589521
0.0589296
0.0589069
0.058884
0.058861
0.0588379
0.0588147
0.0587913
0.0587678
0.0587441
0.0587203
0.0586964
0.0586724
0.0586482
0.0586239
0.0585995
0.0585749
0.0585502
0.0585254
0.0585004
0.0584753
0.05845
0.0584246
0.0583991
0.0583735
0.0583477
0.0583218
0.0582958
0.0582697
0.0582435
0.0582173
0.0581911
0.0581651
0.0581394
0.116512
0.0983266
0.0979401
0.0975544
0.0971666
0.0967947
0.0964504
0.0961375
0.0958558
0.095603
0.0953764
0.0951729
0.0949897
0.0948246
0.0946753
0.0945399
0.0944169
0.0943048
0.0942024
0.0941088
0.0940229
0.0939439
0.0938713
0.0938044
0.0937425
0.0936854
0.0936324
0.0935833
0.0935377
0.0934954
0.0934559
0.0934191
0.0933848
0.0933528
0.0933228
0.0932946
0.0932682
0.0932434
0.09322
0.0931978
0.0931769
0.0931569
0.0931379
0.0931198
0.0931023
0.0930854
0.0930691
0.0930532
0.0930377
0.0930224
0.0930073
0.0929924
0.0929774
0.0929625
0.0929474
0.0929322
0.0929168
0.0929011
0.0928852
0.0928688
0.0928521
0.092835
0.0928173
0.0927992
0.0927805
0.0927613
0.0927415
0.0927211
0.0927001
0.0926785
0.0926562
0.0926333
0.0926097
0.0925854
0.0925604
0.0925347
0.0925084
0.0924814
0.0924538
0.0924255
0.0923966
0.092367
0.0923368
0.0923061
0.0922747
0.0922428
0.0922103
0.0921772
0.0921436
0.0921095
0.0920749
0.0920397
0.0920041
0.0919681
0.0919316
0.0918947
0.0918574
0.0918196
0.0917815
0.0917431
0.0917042
0.0916651
0.0916256
0.0915859
0.0915458
0.0915055
0.0914649
0.0914241
0.0913831
0.0913419
0.0913005
0.0912589
0.0912171
0.0911752
0.0911332
0.091091
0.0910487
0.0910063
0.0909637
0.0909211
0.0908783
0.0908354
0.0907923
0.0907492
0.0907059
0.0906625
0.0906189
0.0905753
0.0905314
0.0904875
0.0904434
0.0903991
0.0903546
0.09031
0.0902652
0.0902201
0.0901749
0.0901295
0.0900839
0.090038
0.0899919
0.0899455
0.0898989
0.089852
0.0898049
0.0897576
0.08971
0.0896623
0.0896146
0.0895672
0.154551
0.135897
0.136224
0.136309
0.136217
0.136013
0.135748
0.135455
0.135156
0.13486
0.134575
0.134303
0.134047
0.133806
0.133581
0.13337
0.133172
0.132988
0.132816
0.132654
0.132504
0.132362
0.13223
0.132106
0.13199
0.13188
0.131777
0.13168
0.131589
0.131503
0.131422
0.131346
0.131273
0.131205
0.13114
0.131078
0.131019
0.130963
0.13091
0.130859
0.130811
0.130764
0.130719
0.130676
0.130634
0.130594
0.130555
0.130516
0.130479
0.130442
0.130406
0.13037
0.130334
0.130299
0.130264
0.130228
0.130193
0.130157
0.130121
0.130085
0.130048
0.13001
0.129972
0.129934
0.129894
0.129854
0.129813
0.129771
0.129729
0.129685
0.129641
0.129596
0.129549
0.129502
0.129454
0.129404
0.129354
0.129303
0.129251
0.129198
0.129144
0.129089
0.129033
0.128977
0.128919
0.128861
0.128802
0.128742
0.128681
0.12862
0.128558
0.128495
0.128432
0.128368
0.128304
0.128239
0.128173
0.128107
0.12804
0.127973
0.127906
0.127838
0.12777
0.127701
0.127632
0.127563
0.127493
0.127424
0.127354
0.127284
0.127214
0.127143
0.127073
0.127003
0.126932
0.126862
0.126791
0.12672
0.12665
0.126579
0.126508
0.126437
0.126367
0.126296
0.126225
0.126154
0.126083
0.126012
0.125941
0.125869
0.125798
0.125726
0.125655
0.125583
0.125511
0.125439
0.125366
0.125294
0.125221
0.125148
0.125074
0.125001
0.124927
0.124852
0.124778
0.124702
0.124627
0.124551
0.124475
0.124399
0.196134
0.176373
0.177424
0.178135
0.17855
0.178735
0.178753
0.178659
0.178491
0.178277
0.178037
0.177782
0.177521
0.17726
0.177003
0.176752
0.176509
0.176275
0.17605
0.175835
0.175629
0.175432
0.175244
0.175065
0.174894
0.174731
0.174575
0.174427
0.174286
0.174151
0.174023
0.1739
0.173783
0.173671
0.173563
0.173461
0.173362
0.173268
0.173177
0.17309
0.173005
0.172924
0.172845
0.172769
0.172695
0.172623
0.172552
0.172484
0.172416
0.17235
0.172284
0.172219
0.172155
0.172091
0.172028
0.171964
0.1719
0.171836
0.171772
0.171707
0.171642
0.171576
0.171509
0.171442
0.171373
0.171303
0.171233
0.171161
0.171088
0.171014
0.170938
0.170861
0.170783
0.170704
0.170623
0.170541
0.170458
0.170373
0.170286
0.170199
0.17011
0.17002
0.169929
0.169836
0.169743
0.169648
0.169552
0.169456
0.169358
0.169259
0.169159
0.169059
0.168957
0.168855
0.168752
0.168648
0.168544
0.168438
0.168333
0.168226
0.16812
0.168012
0.167905
0.167797
0.167688
0.16758
0.167471
0.167362
0.167253
0.167143
0.167034
0.166925
0.166816
0.166706
0.166597
0.166488
0.166379
0.166271
0.166162
0.166054
0.165945
0.165837
0.165729
0.165621
0.165513
0.165405
0.165297
0.165189
0.165082
0.164974
0.164866
0.164759
0.164651
0.164543
0.164435
0.164327
0.164219
0.164111
0.164003
0.163894
0.163786
0.163676
0.163567
0.163457
0.163347
0.163236
0.163125
0.163013
0.162901
0.162789
0.241767
0.220312
0.221907
0.2232
0.224181
0.224872
0.225321
0.22558
0.225694
0.225701
0.22563
0.225502
0.225334
0.225139
0.224924
0.224698
0.224465
0.224229
0.223993
0.223758
0.223527
0.2233
0.223079
0.222863
0.222653
0.222449
0.222252
0.222061
0.221877
0.221699
0.221527
0.22136
0.2212
0.221045
0.220895
0.22075
0.22061
0.220475
0.220344
0.220216
0.220093
0.219973
0.219856
0.219742
0.21963
0.219521
0.219415
0.21931
0.219206
0.219104
0.219003
0.218903
0.218803
0.218704
0.218605
0.218507
0.218408
0.218308
0.218208
0.218108
0.218006
0.217904
0.2178
0.217695
0.217589
0.217481
0.217372
0.217262
0.217149
0.217036
0.21692
0.216802
0.216683
0.216562
0.216439
0.216314
0.216188
0.216059
0.215928
0.215796
0.215662
0.215527
0.215389
0.21525
0.21511
0.214968
0.214824
0.214679
0.214533
0.214385
0.214236
0.214086
0.213935
0.213783
0.21363
0.213475
0.21332
0.213164
0.213008
0.21285
0.212692
0.212534
0.212375
0.212215
0.212055
0.211895
0.211735
0.211575
0.211414
0.211254
0.211094
0.210934
0.210774
0.210614
0.210455
0.210296
0.210137
0.209979
0.209821
0.209663
0.209506
0.209349
0.209192
0.209035
0.208879
0.208724
0.208568
0.208413
0.208258
0.208103
0.207949
0.207794
0.20764
0.207486
0.207332
0.207178
0.207025
0.206871
0.206717
0.206564
0.20641
0.206256
0.206102
0.205947
0.205792
0.205637
0.205481
0.205325
0.205168
0.20501
0.291925
0.268312
0.270236
0.271961
0.273436
0.274636
0.275573
0.276275
0.276779
0.277123
0.277337
0.277448
0.277479
0.277447
0.277365
0.277246
0.277097
0.276926
0.276739
0.27654
0.276333
0.27612
0.275903
0.275686
0.275468
0.275252
0.275038
0.274826
0.274618
0.274413
0.274212
0.274016
0.273823
0.273635
0.273451
0.273272
0.273096
0.272925
0.272757
0.272594
0.272433
0.272276
0.272122
0.27197
0.271821
0.271674
0.27153
0.271386
0.271245
0.271104
0.270965
0.270825
0.270687
0.270548
0.270409
0.27027
0.270131
0.26999
0.269848
0.269706
0.269562
0.269416
0.269269
0.269119
0.268968
0.268815
0.26866
0.268502
0.268342
0.26818
0.268015
0.267848
0.267678
0.267506
0.267331
0.267154
0.266974
0.266792
0.266607
0.266419
0.266229
0.266037
0.265842
0.265645
0.265446
0.265245
0.265042
0.264837
0.264631
0.264422
0.264212
0.264
0.263787
0.263572
0.263356
0.263139
0.26292
0.262701
0.26248
0.262259
0.262036
0.261813
0.26159
0.261366
0.261141
0.260917
0.260692
0.260467
0.260242
0.260018
0.259793
0.259569
0.259345
0.259122
0.258899
0.258677
0.258455
0.258234
0.258013
0.257793
0.257574
0.257355
0.257137
0.25692
0.256703
0.256486
0.256271
0.256055
0.255841
0.255627
0.255413
0.2552
0.254987
0.254774
0.254563
0.254351
0.25414
0.253929
0.253718
0.253508
0.253298
0.253088
0.252878
0.252668
0.252458
0.252247
0.252037
0.251825
0.251613
0.2514
0.347087
0.320945
0.323027
0.325016
0.326845
0.328467
0.329857
0.331014
0.331954
0.332702
0.333283
0.333723
0.334044
0.334267
0.334408
0.334481
0.334498
0.33447
0.334404
0.334307
0.334185
0.334044
0.333886
0.333716
0.333535
0.333348
0.333154
0.332956
0.332756
0.332554
0.332351
0.332149
0.331947
0.331746
0.331546
0.331349
0.331153
0.330959
0.330767
0.330577
0.33039
0.330204
0.33002
0.329837
0.329656
0.329476
0.329297
0.329119
0.328941
0.328764
0.328586
0.328409
0.328231
0.328052
0.327871
0.32769
0.327507
0.327323
0.327136
0.326947
0.326756
0.326563
0.326366
0.326167
0.325965
0.32576
0.325552
0.32534
0.325125
0.324907
0.324685
0.32446
0.324231
0.323999
0.323763
0.323524
0.323281
0.323035
0.322786
0.322532
0.322276
0.322016
0.321753
0.321487
0.321218
0.320946
0.320672
0.320395
0.320115
0.319833
0.319549
0.319263
0.318974
0.318684
0.318392
0.318098
0.317803
0.317506
0.317208
0.316908
0.316608
0.316306
0.316004
0.315701
0.315398
0.315094
0.314791
0.314487
0.314183
0.31388
0.313576
0.313274
0.312971
0.31267
0.312369
0.312069
0.311769
0.311471
0.311173
0.310876
0.310581
0.310286
0.309992
0.309699
0.309406
0.309115
0.308825
0.308536
0.308247
0.307959
0.307672
0.307386
0.307101
0.306817
0.306533
0.30625
0.305968
0.305687
0.305406
0.305126
0.304847
0.304568
0.30429
0.304012
0.303734
0.303456
0.303178
0.302899
0.30262
0.302341
0.407765
0.378766
0.380898
0.383012
0.385051
0.386965
0.38871
0.390264
0.391618
0.392778
0.393759
0.394577
0.39525
0.395797
0.396233
0.396574
0.396833
0.397022
0.39715
0.397226
0.397258
0.397252
0.397214
0.397149
0.397061
0.396953
0.396829
0.39669
0.396541
0.396381
0.396214
0.39604
0.395861
0.395677
0.39549
0.3953
0.395108
0.394914
0.394719
0.394522
0.394325
0.394126
0.393927
0.393727
0.393526
0.393324
0.393121
0.392917
0.392711
0.392504
0.392295
0.392084
0.39187
0.391654
0.391435
0.391214
0.390989
0.390761
0.390529
0.390294
0.390054
0.389811
0.389563
0.389311
0.389054
0.388793
0.388527
0.388257
0.387981
0.387701
0.387416
0.387125
0.38683
0.38653
0.386225
0.385916
0.385601
0.385282
0.384958
0.38463
0.384296
0.383959
0.383616
0.38327
0.38292
0.382566
0.382208
0.381847
0.381482
0.381114
0.380743
0.380369
0.379993
0.379613
0.379231
0.378847
0.378461
0.378073
0.377682
0.377291
0.376897
0.376503
0.376107
0.375711
0.375313
0.374916
0.374518
0.374119
0.373721
0.373323
0.372925
0.372528
0.372132
0.371736
0.371341
0.370947
0.370555
0.370163
0.369772
0.369383
0.368994
0.368607
0.368221
0.367837
0.367454
0.367072
0.366691
0.366311
0.365933
0.365556
0.365181
0.364806
0.364433
0.364062
0.363691
0.363322
0.362954
0.362587
0.362221
0.361857
0.361493
0.361131
0.36077
0.360409
0.360049
0.35969
0.359331
0.358972
0.358612
0.358253
0.474519
0.442346
0.444464
0.446615
0.448747
0.450822
0.452801
0.454649
0.456342
0.457869
0.459228
0.460425
0.46147
0.462374
0.46315
0.463812
0.46437
0.464836
0.465222
0.465535
0.465784
0.465978
0.466122
0.466222
0.466285
0.466313
0.466313
0.466286
0.466237
0.466167
0.46608
0.465978
0.465862
0.465735
0.465597
0.465449
0.465293
0.46513
0.46496
0.464784
0.464602
0.464415
0.464223
0.464026
0.463825
0.463619
0.463408
0.463193
0.462974
0.462749
0.46252
0.462286
0.462047
0.461802
0.461552
0.461297
0.461036
0.460769
0.460496
0.460217
0.459931
0.459639
0.45934
0.459035
0.458723
0.458404
0.458079
0.457746
0.457407
0.45706
0.456707
0.456347
0.45598
0.455606
0.455226
0.454838
0.454445
0.454045
0.453638
0.453225
0.452806
0.452381
0.45195
0.451513
0.451071
0.450623
0.450171
0.449714
0.449252
0.448786
0.448315
0.447841
0.447363
0.446881
0.446396
0.445907
0.445416
0.444922
0.444425
0.443926
0.443425
0.442922
0.442418
0.441912
0.441405
0.440898
0.440389
0.439881
0.439372
0.438863
0.438355
0.437847
0.437339
0.436833
0.436327
0.435822
0.435319
0.434817
0.434316
0.433816
0.433318
0.432822
0.432327
0.431834
0.431342
0.430852
0.430363
0.429877
0.429392
0.428908
0.428427
0.427947
0.427469
0.426993
0.426518
0.426046
0.425575
0.425106
0.424639
0.424173
0.42371
0.423248
0.422787
0.422328
0.421871
0.421415
0.420959
0.420504
0.420049
0.419595
0.547951
0.512285
0.514355
0.516491
0.51864
0.520777
0.522876
0.524904
0.526832
0.52864
0.530313
0.531846
0.533238
0.534493
0.535616
0.536617
0.537504
0.538286
0.538972
0.539569
0.540087
0.540533
0.540914
0.541235
0.541503
0.541724
0.541901
0.542039
0.542142
0.542214
0.542257
0.542274
0.542268
0.54224
0.542193
0.542129
0.542049
0.541954
0.541845
0.541723
0.541589
0.541444
0.541288
0.541122
0.540946
0.54076
0.540565
0.54036
0.540147
0.539924
0.539692
0.539451
0.539201
0.538941
0.538673
0.538395
0.538108
0.537811
0.537504
0.537188
0.536863
0.536527
0.536182
0.535827
0.535462
0.535088
0.534703
0.534309
0.533905
0.533491
0.533068
0.532635
0.532192
0.531741
0.53128
0.53081
0.530331
0.529844
0.529348
0.528843
0.52833
0.52781
0.527281
0.526744
0.5262
0.525649
0.525092
0.524528
0.523957
0.523381
0.522799
0.522212
0.52162
0.521023
0.520421
0.519815
0.519205
0.518591
0.517973
0.517352
0.516729
0.516103
0.515474
0.514843
0.514211
0.513578
0.512943
0.512307
0.511671
0.511035
0.510399
0.509763
0.509127
0.508492
0.507858
0.507225
0.506593
0.505962
0.505333
0.504706
0.50408
0.503456
0.502833
0.502213
0.501594
0.500977
0.500363
0.49975
0.49914
0.498532
0.497926
0.497322
0.496721
0.496122
0.495525
0.494931
0.494339
0.49375
0.493163
0.492579
0.491997
0.491417
0.49084
0.490265
0.489693
0.489122
0.488553
0.487985
0.487418
0.486853
0.628733
0.589228
0.591231
0.593326
0.595451
0.597587
0.599719
0.601827
0.603886
0.605873
0.60777
0.609562
0.611241
0.612801
0.614243
0.615568
0.61678
0.617884
0.618885
0.619791
0.620607
0.62134
0.621996
0.62258
0.623099
0.623557
0.623959
0.62431
0.624614
0.624875
0.625096
0.62528
0.62543
0.625549
0.625638
0.625701
0.625738
0.625752
0.625744
0.625715
0.625666
0.625598
0.625512
0.625409
0.625289
0.625153
0.625001
0.624834
0.624651
0.624454
0.624241
0.624014
0.623773
0.623517
0.623247
0.622962
0.622663
0.62235
0.622022
0.621681
0.621325
0.620955
0.620571
0.620173
0.619761
0.619335
0.618896
0.618443
0.617976
0.617496
0.617003
0.616497
0.615979
0.615447
0.614904
0.614348
0.61378
0.613201
0.61261
0.612008
0.611396
0.610773
0.610139
0.609495
0.608841
0.608178
0.607506
0.606825
0.606136
0.605439
0.604735
0.604024
0.603305
0.602581
0.60185
0.601113
0.60037
0.599623
0.598871
0.598114
0.597353
0.596589
0.595821
0.59505
0.594277
0.593501
0.592724
0.591945
0.591165
0.590385
0.589603
0.588822
0.588041
0.58726
0.586479
0.5857
0.584921
0.584144
0.583368
0.582593
0.581821
0.58105
0.580281
0.579514
0.578749
0.577987
0.577226
0.576469
0.575714
0.574961
0.574211
0.573464
0.57272
0.571978
0.57124
0.570505
0.569772
0.569043
0.568318
0.567595
0.566876
0.56616
0.565447
0.564737
0.56403
0.563327
0.562625
0.561926
0.561228
0.560534
0.717598
0.673883
0.675811
0.677849
0.679931
0.682034
0.684148
0.686265
0.688369
0.690442
0.692467
0.694428
0.69631
0.698104
0.699804
0.701405
0.702905
0.704307
0.70561
0.706819
0.707937
0.708967
0.709915
0.710785
0.71158
0.712307
0.712968
0.713568
0.714111
0.714601
0.71504
0.715432
0.715781
0.716088
0.716356
0.716587
0.716784
0.716947
0.71708
0.717182
0.717256
0.717303
0.717323
0.717318
0.717288
0.717234
0.717156
0.717056
0.716933
0.716788
0.716621
0.716432
0.716222
0.715992
0.71574
0.715468
0.715175
0.714862
0.714529
0.714176
0.713803
0.71341
0.712998
0.712567
0.712117
0.711648
0.71116
0.710654
0.71013
0.709588
0.709028
0.708451
0.707858
0.707247
0.70662
0.705977
0.705319
0.704645
0.703957
0.703254
0.702537
0.701806
0.701062
0.700304
0.699534
0.698751
0.697956
0.69715
0.696334
0.695507
0.694671
0.693825
0.69297
0.692106
0.691234
0.690355
0.689468
0.688574
0.687674
0.686767
0.685856
0.684939
0.684017
0.683091
0.682162
0.681229
0.680293
0.679355
0.678415
0.677473
0.67653
0.675586
0.674642
0.673697
0.672753
0.671808
0.670865
0.669922
0.668981
0.66804
0.667102
0.666165
0.66523
0.664297
0.663366
0.662438
0.661512
0.660589
0.659669
0.658752
0.657838
0.656927
0.65602
0.655116
0.654215
0.653318
0.652425
0.651536
0.650651
0.64977
0.648893
0.64802
0.647151
0.646286
0.645425
0.644568
0.643715
0.642864
0.642017
0.641174
0.815354
0.767018
0.768869
0.770842
0.772871
0.774928
0.777001
0.779087
0.781179
0.783267
0.785339
0.787381
0.78938
0.791324
0.793203
0.79501
0.796739
0.798386
0.799949
0.801428
0.802823
0.804135
0.805366
0.806519
0.807596
0.8086
0.809535
0.810403
0.811207
0.81195
0.812636
0.813267
0.813845
0.814374
0.814854
0.815289
0.81568
0.816029
0.816338
0.816608
0.81684
0.817036
0.817196
0.817322
0.817415
0.817474
0.817502
0.817498
0.817464
0.817399
0.817304
0.817179
0.817025
0.816843
0.816632
0.816393
0.816126
0.815831
0.81551
0.815161
0.814786
0.814385
0.813958
0.813505
0.813027
0.812524
0.811997
0.811445
0.81087
0.810271
0.80965
0.809006
0.80834
0.807652
0.806944
0.806215
0.805465
0.804696
0.803908
0.803102
0.802277
0.801435
0.800575
0.799699
0.798807
0.797899
0.796975
0.796037
0.795085
0.79412
0.793142
0.792152
0.791151
0.790138
0.789115
0.788082
0.787039
0.785987
0.784927
0.783858
0.782783
0.7817
0.780611
0.779516
0.778416
0.777311
0.776202
0.775089
0.773973
0.772854
0.771733
0.77061
0.769485
0.768359
0.767233
0.766106
0.76498
0.763853
0.762728
0.761603
0.760479
0.759357
0.758237
0.757119
0.756002
0.754889
0.753777
0.752669
0.751563
0.750461
0.749362
0.748267
0.747176
0.746088
0.745004
0.743925
0.74285
0.74178
0.740714
0.739654
0.738598
0.737547
0.736501
0.73546
0.734425
0.733394
0.732367
0.731345
0.730326
0.729315
0.922892
0.869488
0.87126
0.873164
0.875136
0.877142
0.879166
0.881205
0.883256
0.885316
0.887378
0.889434
0.891474
0.893489
0.895468
0.897402
0.899284
0.901108
0.902868
0.904561
0.906185
0.907738
0.909219
0.910629
0.911968
0.913236
0.914436
0.915569
0.916636
0.91764
0.918582
0.919465
0.920289
0.921058
0.921771
0.922432
0.923042
0.923602
0.924113
0.924577
0.924994
0.925367
0.925695
0.92598
0.926222
0.926423
0.926582
0.926701
0.926781
0.92682
0.926821
0.926784
0.926708
0.926596
0.926446
0.926259
0.926037
0.925779
0.925485
0.925157
0.924794
0.924398
0.923968
0.923505
0.92301
0.922483
0.921925
0.921336
0.920716
0.920067
0.919389
0.918682
0.917948
0.917186
0.916398
0.915583
0.914744
0.913879
0.912991
0.912079
0.911144
0.910187
0.909209
0.90821
0.907191
0.906152
0.905094
0.904017
0.902923
0.901813
0.900687
0.899545
0.898388
0.897217
0.896033
0.894836
0.893626
0.892405
0.891174
0.889931
0.888679
0.887418
0.886149
0.884871
0.883587
0.882296
0.880999
0.879697
0.87839
0.877079
0.875764
0.874445
0.873125
0.871801
0.870477
0.86915
0.867823
0.866496
0.865168
0.863841
0.862514
0.861188
0.859863
0.85854
0.857219
0.8559
0.854583
0.853269
0.851958
0.850651
0.849347
0.848046
0.84675
0.845458
0.844171
0.842888
0.84161
0.840337
0.83907
0.837808
0.836552
0.835302
0.834057
0.832819
0.831587
0.83036
0.82914
0.827924
0.826713
0.825513
1.04119
0.98222
0.983917
0.985749
0.98766
0.989612
0.991587
0.993576
0.995578
0.997591
0.999612
1.00164
1.00367
1.00569
1.0077
1.00969
1.01165
1.01358
1.01546
1.0173
1.01909
1.02083
1.02251
1.02412
1.02568
1.02718
1.02861
1.02999
1.0313
1.03255
1.03373
1.03486
1.03593
1.03694
1.03789
1.03878
1.03962
1.0404
1.04112
1.04179
1.04241
1.04297
1.04349
1.04395
1.04436
1.04471
1.04502
1.04528
1.04549
1.04566
1.04577
1.04584
1.04585
1.04583
1.04575
1.04563
1.04547
1.04526
1.04501
1.04471
1.04437
1.04399
1.04357
1.04311
1.0426
1.04206
1.04148
1.04085
1.0402
1.0395
1.03877
1.038
1.0372
1.03637
1.0355
1.0346
1.03367
1.03271
1.03172
1.0307
1.02965
1.02858
1.02748
1.02635
1.0252
1.02403
1.02283
1.02161
1.02037
1.0191
1.01782
1.01652
1.0152
1.01386
1.01251
1.01113
1.00975
1.00835
1.00693
1.00551
1.00407
1.00262
1.00115
0.999681
0.998199
0.996709
0.995211
0.993705
0.992193
0.990675
0.989151
0.987623
0.98609
0.984554
0.983015
0.981473
0.979928
0.978383
0.976836
0.975288
0.97374
0.972193
0.970646
0.969099
0.967554
0.966011
0.96447
0.962931
0.961396
0.959863
0.958334
0.956808
0.955287
0.95377
0.952258
0.95075
0.949249
0.947752
0.946262
0.944778
0.9433
0.941829
0.940365
0.938908
0.937457
0.936014
0.934577
0.933147
0.931722
0.930312
1.17131
1.10624
1.10786
1.10963
1.11147
1.11337
1.11529
1.11723
1.11919
1.12115
1.12312
1.1251
1.12709
1.12908
1.13108
1.13306
1.13504
1.13701
1.13895
1.14087
1.14275
1.1446
1.14641
1.14818
1.1499
1.15157
1.15319
1.15476
1.15627
1.15773
1.15913
1.16048
1.16176
1.16299
1.16416
1.16527
1.16632
1.16731
1.16824
1.16911
1.16993
1.17068
1.17138
1.17202
1.17259
1.17312
1.17358
1.17398
1.17433
1.17462
1.17485
1.17502
1.17514
1.17521
1.17521
1.17517
1.17507
1.17491
1.1747
1.17444
1.17413
1.17377
1.17336
1.17289
1.17238
1.17183
1.17122
1.17057
1.16987
1.16913
1.16835
1.16752
1.16665
1.16574
1.16479
1.16381
1.16278
1.16172
1.16063
1.15949
1.15833
1.15713
1.1559
1.15465
1.15336
1.15204
1.15069
1.14932
1.14792
1.1465
1.14505
1.14358
1.14209
1.14057
1.13904
1.13749
1.13591
1.13432
1.13271
1.13109
1.12945
1.1278
1.12613
1.12445
1.12276
1.12106
1.11935
1.11762
1.11589
1.11415
1.11241
1.11065
1.10889
1.10713
1.10536
1.10359
1.10181
1.10003
1.09825
1.09646
1.09468
1.09289
1.0911
1.08932
1.08753
1.08575
1.08396
1.08218
1.0804
1.07862
1.07685
1.07508
1.07331
1.07155
1.0698
1.06804
1.0663
1.06456
1.06282
1.0611
1.05938
1.05766
1.05596
1.05426
1.05257
1.05089
1.04922
1.04755
1.04589
1.04425
1.31446
1.24268
1.24423
1.24592
1.2477
1.24954
1.25141
1.25331
1.25522
1.25713
1.25906
1.26099
1.26293
1.26487
1.26682
1.26878
1.27073
1.27269
1.27463
1.27657
1.27849
1.28039
1.28227
1.28412
1.28594
1.28772
1.28947
1.29117
1.29283
1.29444
1.29601
1.29752
1.29898
1.30038
1.30173
1.30302
1.30425
1.30543
1.30654
1.30758
1.30857
1.30949
1.31035
1.31115
1.31188
1.31254
1.31314
1.31368
1.31414
1.31455
1.31489
1.31516
1.31537
1.31551
1.31559
1.31561
1.31556
1.31545
1.31528
1.31505
1.31476
1.31441
1.314
1.31353
1.313
1.31242
1.31179
1.3111
1.31035
1.30956
1.30871
1.30782
1.30687
1.30588
1.30484
1.30376
1.30264
1.30147
1.30025
1.299
1.29771
1.29638
1.29502
1.29361
1.29218
1.29071
1.2892
1.28767
1.28611
1.28451
1.28289
1.28124
1.27956
1.27786
1.27613
1.27439
1.27261
1.27082
1.26901
1.26718
1.26533
1.26346
1.26157
1.25967
1.25776
1.25583
1.25389
1.25194
1.24997
1.248
1.24602
1.24402
1.24202
1.24002
1.238
1.23598
1.23396
1.23193
1.22989
1.22786
1.22582
1.22377
1.22173
1.21969
1.21764
1.2156
1.21355
1.21151
1.20947
1.20743
1.20539
1.20336
1.20133
1.19931
1.19729
1.19527
1.19326
1.19126
1.18926
1.18727
1.18529
1.18331
1.18135
1.17939
1.17744
1.1755
1.17357
1.17164
1.16973
1.16784
1.47192
1.39277
1.39426
1.39588
1.3976
1.39938
1.40119
1.40304
1.40491
1.40678
1.40866
1.41055
1.41244
1.41434
1.41624
1.41814
1.42006
1.42197
1.42389
1.4258
1.42771
1.42961
1.4315
1.43337
1.43523
1.43706
1.43887
1.44064
1.44238
1.44409
1.44575
1.44737
1.44894
1.45047
1.45194
1.45335
1.45471
1.45601
1.45725
1.45843
1.45954
1.46058
1.46156
1.46247
1.46331
1.46408
1.46478
1.46541
1.46596
1.46645
1.46686
1.4672
1.46747
1.46766
1.46779
1.46784
1.46782
1.46773
1.46757
1.46734
1.46704
1.46668
1.46625
1.46575
1.46519
1.46456
1.46388
1.46313
1.46232
1.46145
1.46052
1.45954
1.4585
1.45741
1.45627
1.45507
1.45382
1.45253
1.45118
1.4498
1.44836
1.44688
1.44536
1.4438
1.4422
1.44056
1.43889
1.43718
1.43543
1.43365
1.43184
1.42999
1.42812
1.42621
1.42428
1.42232
1.42034
1.41833
1.4163
1.41424
1.41216
1.41007
1.40795
1.40581
1.40366
1.40149
1.39931
1.39711
1.3949
1.39268
1.39044
1.38819
1.38594
1.38367
1.3814
1.37911
1.37683
1.37453
1.37223
1.36993
1.36762
1.3653
1.36299
1.36067
1.35835
1.35603
1.35371
1.35139
1.34907
1.34675
1.34443
1.34212
1.33981
1.3375
1.3352
1.3329
1.33061
1.32833
1.32605
1.32377
1.32151
1.31925
1.31701
1.31477
1.31254
1.31032
1.30811
1.30591
1.30372
1.30156
1.64513
1.55788
1.55932
1.56087
1.56252
1.56424
1.566
1.5678
1.56962
1.57145
1.5733
1.57514
1.57699
1.57885
1.58071
1.58257
1.58443
1.5863
1.58817
1.59003
1.5919
1.59377
1.59563
1.59748
1.59933
1.60115
1.60296
1.60474
1.6065
1.60823
1.60993
1.61158
1.6132
1.61477
1.61629
1.61776
1.61917
1.62053
1.62182
1.62305
1.62422
1.62532
1.62635
1.62731
1.62819
1.629
1.62974
1.6304
1.63098
1.63149
1.63191
1.63226
1.63253
1.63273
1.63284
1.63288
1.63283
1.63272
1.63252
1.63225
1.6319
1.63148
1.63099
1.63042
1.62978
1.62907
1.6283
1.62745
1.62654
1.62556
1.62452
1.62342
1.62225
1.62103
1.61974
1.6184
1.61701
1.61556
1.61405
1.6125
1.61089
1.60924
1.60754
1.6058
1.60401
1.60218
1.60031
1.5984
1.59645
1.59446
1.59243
1.59037
1.58828
1.58615
1.58399
1.5818
1.57958
1.57734
1.57506
1.57277
1.57044
1.5681
1.56573
1.56334
1.56093
1.55851
1.55606
1.5536
1.55113
1.54863
1.54613
1.54361
1.54108
1.53854
1.53599
1.53343
1.53086
1.52828
1.5257
1.52311
1.52051
1.51791
1.51531
1.5127
1.51009
1.50747
1.50486
1.50224
1.49963
1.49701
1.4944
1.49179
1.48918
1.48658
1.48397
1.48138
1.47879
1.4762
1.47362
1.47105
1.46848
1.46593
1.46338
1.46084
1.45832
1.4558
1.45329
1.45079
1.44831
1.44586
1.83566
1.73952
1.7409
1.74239
1.74398
1.74564
1.74734
1.74909
1.75086
1.75265
1.75446
1.75627
1.75808
1.7599
1.76172
1.76354
1.76536
1.76718
1.769
1.77082
1.77264
1.77445
1.77626
1.77806
1.77985
1.78163
1.78339
1.78513
1.78685
1.78854
1.79019
1.79181
1.79339
1.79493
1.79642
1.79785
1.79924
1.80056
1.80182
1.80302
1.80415
1.80522
1.80621
1.80712
1.80796
1.80873
1.80941
1.81002
1.81054
1.81098
1.81134
1.81161
1.81181
1.81192
1.81194
1.81189
1.81175
1.81152
1.81122
1.81084
1.81037
1.80983
1.8092
1.8085
1.80772
1.80687
1.80594
1.80495
1.80387
1.80273
1.80152
1.80025
1.79891
1.7975
1.79603
1.7945
1.79291
1.79126
1.78955
1.78779
1.78598
1.78411
1.7822
1.78023
1.77822
1.77616
1.77406
1.77191
1.76973
1.7675
1.76523
1.76292
1.76057
1.75819
1.75578
1.75333
1.75085
1.74834
1.74581
1.74324
1.74065
1.73803
1.73539
1.73272
1.73004
1.72733
1.7246
1.72185
1.71909
1.71631
1.71352
1.71071
1.70788
1.70505
1.7022
1.69934
1.69647
1.69359
1.69071
1.68781
1.68491
1.682
1.67909
1.67618
1.67326
1.67033
1.66741
1.66448
1.66155
1.65862
1.6557
1.65277
1.64985
1.64692
1.64401
1.64109
1.63818