/*--------------------------------*- C++ -*----------------------------------*\
| =========                 |                                                 |
| \\      /  F ield         | OpenFOAM: The Open Source CFD Toolbox           |
|  \\    /   O peration     | Version:  5.x                                   |
|   \\  /    A nd           | Web:      www.OpenFOAM.org                      |
|    \\/     M anipulation  |                                                 |
\*---------------------------------------------------------------------------*/
FoamFile
{
    version     2.0;
    format      ascii;
    class       volVectorField;
    location    "0";
    object      U;
}
// * * * * * * * * * * * * * * * * * * * * * * * * * * * * * * * * * * * * * //

dimensions      [0 1 -1 0 0 0 0];

internalField   nonuniform List<vector> 
86400
(
(3.34623 0 0.00560476)
(1.84426 0 -1.95447e-05)
(1.84842 0 1.35766e-05)
(1.85162 0 5.40251e-06)
(1.85438 0 9.18147e-08)
(1.85679 0 -2.46364e-06)
(1.85891 0 -3.8263e-06)
(1.8608 0 -4.5279e-06)
(1.86251 0 -4.87248e-06)
(1.86405 0 -5.014e-06)
(1.86547 0 -5.03628e-06)
(1.86677 0 -4.98815e-06)
(1.86798 0 -4.89857e-06)
(1.86911 0 -4.78518e-06)
(1.87016 0 -4.65816e-06)
(1.87115 0 -4.5236e-06)
(1.87208 0 -4.3871e-06)
(1.87295 0 -4.25138e-06)
(1.87378 0 -4.11766e-06)
(1.87457 0 -3.98764e-06)
(1.87532 0 -3.86184e-06)
(1.87603 0 -3.74054e-06)
(1.87671 0 -3.62404e-06)
(1.87736 0 -3.51216e-06)
(1.87799 0 -3.40505e-06)
(1.87858 0 -3.30243e-06)
(1.87916 0 -3.20422e-06)
(1.87971 0 -3.11011e-06)
(1.88024 0 -3.01995e-06)
(1.88075 0 -2.93351e-06)
(1.88124 0 -2.85052e-06)
(1.88171 0 -2.77064e-06)
(1.88217 0 -2.69367e-06)
(1.88261 0 -2.61931e-06)
(1.88304 0 -2.54732e-06)
(1.88346 0 -2.47733e-06)
(1.88386 0 -2.40914e-06)
(1.88425 0 -2.34242e-06)
(1.88462 0 -2.27692e-06)
(1.88499 0 -2.21234e-06)
(1.88534 0 -2.14846e-06)
(1.88568 0 -2.08496e-06)
(1.88601 0 -2.02168e-06)
(1.88633 0 -1.95832e-06)
(1.88664 0 -1.8947e-06)
(1.88694 0 -1.83055e-06)
(1.88723 0 -1.76577e-06)
(1.88751 0 -1.70012e-06)
(1.88778 0 -1.63352e-06)
(1.88803 0 -1.56577e-06)
(1.88828 0 -1.4968e-06)
(1.88852 0 -1.42645e-06)
(1.88874 0 -1.35474e-06)
(1.88896 0 -1.28155e-06)
(1.88916 0 -1.20687e-06)
(1.88936 0 -1.13063e-06)
(1.88954 0 -1.05291e-06)
(1.88971 0 -9.73614e-07)
(1.88987 0 -8.9285e-07)
(1.89002 0 -8.10579e-07)
(1.89015 0 -7.26924e-07)
(1.89028 0 -6.41881e-07)
(1.89039 0 -5.55571e-07)
(1.89049 0 -4.67978e-07)
(1.89058 0 -3.79311e-07)
(1.89065 0 -2.89536e-07)
(1.89071 0 -1.98858e-07)
(1.89076 0 -1.07234e-07)
(1.8908 0 -1.63376e-08)
(1.89082 0 7.17037e-08)
(1.89083 0 1.63971e-07)
(1.89083 0 2.57941e-07)
(1.89081 0 3.62076e-07)
(1.89078 0 4.59071e-07)
(1.89074 0 5.52866e-07)
(1.89068 0 6.4766e-07)
(1.89061 0 7.42112e-07)
(1.89053 0 8.36239e-07)
(1.89043 0 9.30015e-07)
(1.89032 0 1.02352e-06)
(1.8902 0 1.11663e-06)
(1.89006 0 1.20973e-06)
(1.88991 0 1.30288e-06)
(1.88975 0 1.39609e-06)
(1.88958 0 1.48689e-06)
(1.88939 0 1.5743e-06)
(1.88919 0 1.66228e-06)
(1.88898 0 1.75068e-06)
(1.88875 0 1.83634e-06)
(1.88851 0 1.92154e-06)
(1.88826 0 2.00536e-06)
(1.888 0 2.08887e-06)
(1.88773 0 2.16976e-06)
(1.88745 0 2.24937e-06)
(1.88715 0 2.32747e-06)
(1.88684 0 2.40412e-06)
(1.88652 0 2.47911e-06)
(1.8862 0 2.55258e-06)
(1.88586 0 2.62425e-06)
(1.88551 0 2.69427e-06)
(1.88515 0 2.7624e-06)
(1.88478 0 2.8288e-06)
(1.8844 0 2.89321e-06)
(1.88401 0 2.95588e-06)
(1.88362 0 3.01662e-06)
(1.88321 0 3.07557e-06)
(1.8828 0 3.13263e-06)
(1.88238 0 3.18795e-06)
(1.88195 0 3.24149e-06)
(1.88151 0 3.29324e-06)
(1.88107 0 3.34335e-06)
(1.88062 0 3.3916e-06)
(1.88016 0 3.4383e-06)
(1.8797 0 3.48301e-06)
(1.87923 0 3.52621e-06)
(1.87875 0 3.56721e-06)
(1.87827 0 3.6066e-06)
(1.87778 0 3.64357e-06)
(1.87729 0 3.67885e-06)
(1.87679 0 3.71139e-06)
(1.87629 0 3.742e-06)
(1.87578 0 3.76954e-06)
(1.87527 0 3.79494e-06)
(1.87476 0 3.81688e-06)
(1.87424 0 3.83626e-06)
(1.87372 0 3.85177e-06)
(1.8732 0 3.86445e-06)
(1.87268 0 3.87263e-06)
(1.87216 0 3.87707e-06)
(1.87164 0 3.87631e-06)
(1.87111 0 3.87181e-06)
(1.8706 0 3.86277e-06)
(1.87008 0 3.85003e-06)
(1.86956 0 3.83178e-06)
(1.86905 0 3.80922e-06)
(1.86855 0 3.7809e-06)
(1.86804 0 3.74834e-06)
(1.86755 0 3.71035e-06)
(1.86706 0 3.6688e-06)
(1.86658 0 3.62289e-06)
(1.86611 0 3.57524e-06)
(1.86564 0 3.52583e-06)
(1.86519 0 3.47739e-06)
(1.86474 0 3.42636e-06)
(1.86429 0 3.35854e-06)
(1.86386 0 3.22877e-06)
(1.86343 0 2.92509e-06)
(1.86302 0 2.16081e-06)
(1.86263 0 2.39977e-07)
(1.86227 0 -4.16561e-06)
(4.64068 0 0.00274322)
(4.15232 0 -0.000762125)
(4.17366 0 -0.000614378)
(4.18914 0 -0.000462834)
(4.20103 0 -0.000370952)
(4.21056 0 -0.000308078)
(4.21847 0 -0.000262586)
(4.22518 0 -0.000228371)
(4.231 0 -0.000201788)
(4.23613 0 -0.000180565)
(4.24069 0 -0.000163229)
(4.2448 0 -0.000148804)
(4.24854 0 -0.000136615)
(4.25195 0 -0.000126176)
(4.25509 0 -0.000117132)
(4.258 0 -0.000109218)
(4.2607 0 -0.000102236)
(4.26322 0 -9.60296e-05)
(4.26558 0 -9.0475e-05)
(4.2678 0 -8.54776e-05)
(4.26989 0 -8.09567e-05)
(4.27187 0 -7.68482e-05)
(4.27374 0 -7.30988e-05)
(4.27551 0 -6.96634e-05)
(4.2772 0 -6.65052e-05)
(4.2788 0 -6.35918e-05)
(4.28034 0 -6.08965e-05)
(4.2818 0 -5.83952e-05)
(4.28321 0 -5.6068e-05)
(4.28455 0 -5.38966e-05)
(4.28584 0 -5.18654e-05)
(4.28708 0 -4.996e-05)
(4.28828 0 -4.81679e-05)
(4.28943 0 -4.64774e-05)
(4.29053 0 -4.48781e-05)
(4.2916 0 -4.33603e-05)
(4.29263 0 -4.19151e-05)
(4.29362 0 -4.05343e-05)
(4.29458 0 -3.92101e-05)
(4.29551 0 -3.79352e-05)
(4.29641 0 -3.67031e-05)
(4.29728 0 -3.55075e-05)
(4.29811 0 -3.43427e-05)
(4.29892 0 -3.32031e-05)
(4.29971 0 -3.20838e-05)
(4.30046 0 -3.09799e-05)
(4.30119 0 -2.9887e-05)
(4.3019 0 -2.88012e-05)
(4.30257 0 -2.7719e-05)
(4.30323 0 -2.6637e-05)
(4.30385 0 -2.55524e-05)
(4.30445 0 -2.44626e-05)
(4.30503 0 -2.33654e-05)
(4.30558 0 -2.22588e-05)
(4.3061 0 -2.11413e-05)
(4.3066 0 -2.00115e-05)
(4.30707 0 -1.88685e-05)
(4.30752 0 -1.77114e-05)
(4.30793 0 -1.65397e-05)
(4.30833 0 -1.53531e-05)
(4.30869 0 -1.41515e-05)
(4.30903 0 -1.29351e-05)
(4.30933 0 -1.1704e-05)
(4.30962 0 -1.04588e-05)
(4.30987 0 -9.20019e-06)
(4.31009 0 -7.92868e-06)
(4.31029 0 -6.64531e-06)
(4.31045 0 -5.35084e-06)
(4.31059 0 -4.04664e-06)
(4.31069 0 -2.73373e-06)
(4.31077 0 -1.40747e-06)
(4.31082 0 -6.6498e-08)
(4.31083 0 1.2852e-06)
(4.31082 0 2.61486e-06)
(4.31077 0 3.95648e-06)
(4.3107 0 5.29788e-06)
(4.31059 0 6.64066e-06)
(4.31046 0 7.98209e-06)
(4.31029 0 9.31922e-06)
(4.31009 0 1.0653e-05)
(4.30987 0 1.19804e-05)
(4.30961 0 1.33034e-05)
(4.30932 0 1.46201e-05)
(4.30901 0 1.59309e-05)
(4.30866 0 1.72254e-05)
(4.30828 0 1.8502e-05)
(4.30788 0 1.97723e-05)
(4.30745 0 2.10324e-05)
(4.30699 0 2.22739e-05)
(4.3065 0 2.35024e-05)
(4.30598 0 2.47158e-05)
(4.30543 0 2.59195e-05)
(4.30486 0 2.70986e-05)
(4.30426 0 2.82556e-05)
(4.30364 0 2.93915e-05)
(4.30299 0 3.05062e-05)
(4.30231 0 3.15986e-05)
(4.30161 0 3.26681e-05)
(4.30089 0 3.37132e-05)
(4.30014 0 3.47334e-05)
(4.29937 0 3.57275e-05)
(4.29857 0 3.66952e-05)
(4.29776 0 3.76357e-05)
(4.29692 0 3.85493e-05)
(4.29606 0 3.94356e-05)
(4.29519 0 4.02952e-05)
(4.29429 0 4.11284e-05)
(4.29338 0 4.19357e-05)
(4.29244 0 4.27175e-05)
(4.29149 0 4.3474e-05)
(4.29052 0 4.42058e-05)
(4.28954 0 4.49122e-05)
(4.28854 0 4.55936e-05)
(4.28752 0 4.62486e-05)
(4.28649 0 4.68773e-05)
(4.28544 0 4.74772e-05)
(4.28439 0 4.80481e-05)
(4.28331 0 4.85868e-05)
(4.28223 0 4.90928e-05)
(4.28114 0 4.95621e-05)
(4.28003 0 4.99939e-05)
(4.27892 0 5.03836e-05)
(4.27779 0 5.07304e-05)
(4.27666 0 5.1029e-05)
(4.27553 0 5.1278e-05)
(4.27438 0 5.14721e-05)
(4.27324 0 5.161e-05)
(4.27209 0 5.1686e-05)
(4.27094 0 5.16972e-05)
(4.2698 0 5.1636e-05)
(4.26865 0 5.15016e-05)
(4.26751 0 5.1293e-05)
(4.26637 0 5.10083e-05)
(4.26525 0 5.06408e-05)
(4.26413 0 5.01906e-05)
(4.26302 0 4.96547e-05)
(4.26193 0 4.90374e-05)
(4.26085 0 4.83401e-05)
(4.25979 0 4.75718e-05)
(4.25875 0 4.67409e-05)
(4.25773 0 4.58671e-05)
(4.25674 0 4.49724e-05)
(4.25576 0 4.40939e-05)
(4.2548 0 4.32664e-05)
(4.25386 0 4.25096e-05)
(4.25295 0 4.17923e-05)
(4.25205 0 4.09691e-05)
(4.25116 0 3.95432e-05)
(4.25032 0 3.60665e-05)
(4.24952 0 2.61146e-05)
(5.38036 0 0.000187733)
(5.08313 0 -0.00238333)
(5.1107 0 -0.00185781)
(5.13214 0 -0.00141689)
(5.14929 0 -0.00112868)
(5.16335 0 -0.00092963)
(5.17513 0 -0.000785396)
(5.1852 0 -0.000677065)
(5.19395 0 -0.000593188)
(5.20164 0 -0.000526552)
(5.20849 0 -0.000472438)
(5.21464 0 -0.000427689)
(5.22021 0 -0.000390109)
(5.22529 0 -0.000358125)
(5.22994 0 -0.000330585)
(5.23424 0 -0.000306634)
(5.23821 0 -0.000285626)
(5.24191 0 -0.000267054)
(5.24536 0 -0.000250523)
(5.24858 0 -0.000235724)
(5.25162 0 -0.000222402)
(5.25447 0 -0.000210352)
(5.25717 0 -0.000199403)
(5.25972 0 -0.000189416)
(5.26213 0 -0.000180271)
(5.26443 0 -0.00017187)
(5.26661 0 -0.000164127)
(5.26869 0 -0.000156969)
(5.27068 0 -0.000150333)
(5.27258 0 -0.000144164)
(5.2744 0 -0.000138414)
(5.27614 0 -0.00013304)
(5.27781 0 -0.000128005)
(5.27942 0 -0.000123272)
(5.28096 0 -0.000118812)
(5.28245 0 -0.000114597)
(5.28388 0 -0.000110601)
(5.28526 0 -0.000106799)
(5.28659 0 -0.000103171)
(5.28787 0 -9.96946e-05)
(5.28911 0 -9.63527e-05)
(5.2903 0 -9.31271e-05)
(5.29146 0 -9.00021e-05)
(5.29257 0 -8.69624e-05)
(5.29365 0 -8.3994e-05)
(5.29469 0 -8.10836e-05)
(5.29569 0 -7.82194e-05)
(5.29666 0 -7.53904e-05)
(5.29759 0 -7.25865e-05)
(5.29848 0 -6.97987e-05)
(5.29935 0 -6.70189e-05)
(5.30017 0 -6.42397e-05)
(5.30097 0 -6.14548e-05)
(5.30173 0 -5.86585e-05)
(5.30246 0 -5.58461e-05)
(5.30315 0 -5.30134e-05)
(5.30381 0 -5.01573e-05)
(5.30444 0 -4.7275e-05)
(5.30503 0 -4.43646e-05)
(5.30559 0 -4.14244e-05)
(5.30612 0 -3.84537e-05)
(5.30661 0 -3.5452e-05)
(5.30706 0 -3.24196e-05)
(5.30748 0 -2.93569e-05)
(5.30786 0 -2.62649e-05)
(5.30821 0 -2.31447e-05)
(5.30852 0 -1.99982e-05)
(5.3088 0 -1.6827e-05)
(5.30904 0 -1.36334e-05)
(5.30924 0 -1.04195e-05)
(5.30941 0 -7.18243e-06)
(5.30954 0 -3.92237e-06)
(5.30963 0 -6.38828e-07)
(5.30969 0 2.64479e-06)
(5.3097 0 5.89626e-06)
(5.30968 0 9.21047e-06)
(5.30963 0 1.24875e-05)
(5.30953 0 1.57651e-05)
(5.3094 0 1.90384e-05)
(5.30923 0 2.23042e-05)
(5.30902 0 2.55554e-05)
(5.30878 0 2.87951e-05)
(5.3085 0 3.20183e-05)
(5.30818 0 3.52263e-05)
(5.30783 0 3.84006e-05)
(5.30743 0 4.15395e-05)
(5.30701 0 4.46597e-05)
(5.30655 0 4.77522e-05)
(5.30605 0 5.08055e-05)
(5.30552 0 5.38261e-05)
(5.30495 0 5.68115e-05)
(5.30435 0 5.97716e-05)
(5.30372 0 6.26785e-05)
(5.30305 0 6.55314e-05)
(5.30235 0 6.83328e-05)
(5.30162 0 7.1083e-05)
(5.30085 0 7.37792e-05)
(5.30006 0 7.64196e-05)
(5.29923 0 7.90009e-05)
(5.29838 0 8.15217e-05)
(5.2975 0 8.39793e-05)
(5.29658 0 8.63726e-05)
(5.29565 0 8.87001e-05)
(5.29468 0 9.09622e-05)
(5.29369 0 9.31586e-05)
(5.29267 0 9.52907e-05)
(5.29163 0 9.73589e-05)
(5.29057 0 9.9365e-05)
(5.28948 0 0.00010131)
(5.28837 0 0.000103194)
(5.28724 0 0.000105017)
(5.28608 0 0.00010678)
(5.28491 0 0.000108482)
(5.28372 0 0.00011012)
(5.2825 0 0.000111692)
(5.28127 0 0.000113194)
(5.28003 0 0.000114624)
(5.27876 0 0.000115975)
(5.27748 0 0.000117243)
(5.27619 0 0.00011842)
(5.27488 0 0.000119503)
(5.27356 0 0.000120481)
(5.27223 0 0.00012135)
(5.27088 0 0.000122098)
(5.26953 0 0.000122721)
(5.26818 0 0.000123207)
(5.26682 0 0.00012355)
(5.26545 0 0.00012374)
(5.26408 0 0.000123766)
(5.26272 0 0.000123613)
(5.26136 0 0.000123273)
(5.26 0 0.000122744)
(5.25865 0 0.00012202)
(5.25731 0 0.000121088)
(5.25598 0 0.000119946)
(5.25466 0 0.000118586)
(5.25336 0 0.000117017)
(5.25209 0 0.000115244)
(5.25083 0 0.000113286)
(5.2496 0 0.000111164)
(5.24839 0 0.000108923)
(5.24721 0 0.000106619)
(5.24606 0 0.000104339)
(5.24494 0 0.000102183)
(5.24385 0 0.000100254)
(5.24277 0 9.86094e-05)
(5.24173 0 9.72247e-05)
(5.2407 0 9.57055e-05)
(5.23971 0 9.25378e-05)
(5.23876 0 8.18302e-05)
(5.92287 0 -0.00101436)
(5.69134 0 -0.00409501)
(5.7154 0 -0.00336194)
(5.73683 0 -0.00266039)
(5.75522 0 -0.00216203)
(5.77101 0 -0.00180194)
(5.78466 0 -0.00153316)
(5.7966 0 -0.00132702)
(5.80714 0 -0.00116501)
(5.81652 0 -0.00103493)
(5.82495 0 -0.000928476)
(5.83257 0 -0.000839964)
(5.83951 0 -0.00076534)
(5.84585 0 -0.000701654)
(5.85169 0 -0.000646719)
(5.85709 0 -0.000598891)
(5.86209 0 -0.000556915)
(5.86675 0 -0.000519797)
(5.8711 0 -0.000486765)
(5.87518 0 -0.000457204)
(5.87901 0 -0.000430606)
(5.88261 0 -0.000406565)
(5.88601 0 -0.00038474)
(5.88923 0 -0.00036485)
(5.89228 0 -0.000346657)
(5.89517 0 -0.000329961)
(5.89792 0 -0.000314591)
(5.90054 0 -0.0003004)
(5.90304 0 -0.000287262)
(5.90543 0 -0.000275065)
(5.90771 0 -0.000263712)
(5.9099 0 -0.000253119)
(5.91199 0 -0.000243208)
(5.914 0 -0.000233912)
(5.91594 0 -0.000225169)
(5.91779 0 -0.000216924)
(5.91958 0 -0.000209125)
(5.9213 0 -0.000201726)
(5.92296 0 -0.000194685)
(5.92455 0 -0.000187961)
(5.9261 0 -0.000181519)
(5.92758 0 -0.000175324)
(5.92902 0 -0.000169346)
(5.9304 0 -0.000163556)
(5.93174 0 -0.000157926)
(5.93303 0 -0.000152432)
(5.93428 0 -0.00014705)
(5.93548 0 -0.000141759)
(5.93664 0 -0.000136541)
(5.93775 0 -0.000131376)
(5.93883 0 -0.000126251)
(5.93986 0 -0.000121149)
(5.94085 0 -0.000116059)
(5.94181 0 -0.00011097)
(5.94272 0 -0.00010587)
(5.94359 0 -0.000100753)
(5.94443 0 -9.56111e-05)
(5.94522 0 -9.04381e-05)
(5.94598 0 -8.52296e-05)
(5.9467 0 -7.99818e-05)
(5.94737 0 -7.46921e-05)
(5.94801 0 -6.93586e-05)
(5.94861 0 -6.39808e-05)
(5.94916 0 -5.85584e-05)
(5.94968 0 -5.30923e-05)
(5.95015 0 -4.75837e-05)
(5.95059 0 -4.20348e-05)
(5.95098 0 -3.64476e-05)
(5.95134 0 -3.08256e-05)
(5.95165 0 -2.51718e-05)
(5.95192 0 -1.94848e-05)
(5.95215 0 -1.37691e-05)
(5.95234 0 -8.01876e-06)
(5.95248 0 -2.26411e-06)
(5.95258 0 3.51093e-06)
(5.95265 0 9.28901e-06)
(5.95267 0 1.5006e-05)
(5.95264 0 2.08085e-05)
(5.95258 0 2.65478e-05)
(5.95247 0 3.22792e-05)
(5.95233 0 3.79928e-05)
(5.95214 0 4.36866e-05)
(5.95191 0 4.93522e-05)
(5.95164 0 5.49904e-05)
(5.95132 0 6.05756e-05)
(5.95097 0 6.6106e-05)
(5.95058 0 7.16018e-05)
(5.95014 0 7.70487e-05)
(5.94967 0 8.24329e-05)
(5.94916 0 8.77603e-05)
(5.94861 0 9.30279e-05)
(5.94802 0 9.825e-05)
(5.94739 0 0.000103386)
(5.94672 0 0.000108431)
(5.94602 0 0.000113386)
(5.94528 0 0.000118253)
(5.94451 0 0.000123026)
(5.9437 0 0.000127703)
(5.94286 0 0.000132278)
(5.94198 0 0.000136748)
(5.94107 0 0.000141108)
(5.94013 0 0.000145358)
(5.93916 0 0.000149495)
(5.93815 0 0.000153519)
(5.93712 0 0.000157431)
(5.93606 0 0.000161233)
(5.93497 0 0.000164925)
(5.93385 0 0.000168511)
(5.9327 0 0.000171993)
(5.93153 0 0.000175371)
(5.93034 0 0.000178645)
(5.92912 0 0.000181814)
(5.92787 0 0.000184877)
(5.92661 0 0.00018783)
(5.92532 0 0.000190667)
(5.92401 0 0.000193382)
(5.92267 0 0.000195968)
(5.92132 0 0.000198415)
(5.91995 0 0.000200715)
(5.91857 0 0.000202854)
(5.91716 0 0.000204823)
(5.91574 0 0.000206606)
(5.91431 0 0.000208194)
(5.91287 0 0.000209569)
(5.91142 0 0.000210718)
(5.90995 0 0.000211623)
(5.90848 0 0.000212273)
(5.90701 0 0.000212648)
(5.90554 0 0.000212733)
(5.90406 0 0.000212502)
(5.90259 0 0.000211935)
(5.90112 0 0.000211028)
(5.89965 0 0.00020977)
(5.8982 0 0.000208142)
(5.89676 0 0.000206133)
(5.89534 0 0.000203735)
(5.89393 0 0.000200957)
(5.89255 0 0.000197809)
(5.89119 0 0.000194318)
(5.88986 0 0.000190524)
(5.88856 0 0.000186498)
(5.88729 0 0.000182335)
(5.88605 0 0.00017818)
(5.88484 0 0.000174213)
(5.88366 0 0.00017064)
(5.88251 0 0.000167642)
(5.88139 0 0.000165365)
(5.8803 0 0.000163621)
(5.87924 0 0.000161072)
(5.87822 0 0.000151731)
(6.36101 0 -0.00144601)
(6.16221 0 -0.0053658)
(6.17892 0 -0.00476924)
(6.19675 0 -0.00395418)
(6.2135 0 -0.0033086)
(6.22874 0 -0.00281311)
(6.24249 0 -0.00242761)
(6.25488 0 -0.0021228)
(6.26607 0 -0.00187765)
(6.27623 0 -0.00167725)
(6.28548 0 -0.00151094)
(6.29395 0 -0.00137111)
(6.30173 0 -0.00125213)
(6.30891 0 -0.00114985)
(6.31556 0 -0.00106108)
(6.32174 0 -0.000983409)
(6.3275 0 -0.000914955)
(6.33288 0 -0.000854215)
(6.33793 0 -0.000800002)
(6.34267 0 -0.000751366)
(6.34713 0 -0.000707516)
(6.35135 0 -0.000667812)
(6.35533 0 -0.000631716)
(6.3591 0 -0.00059878)
(6.36268 0 -0.000568625)
(6.36609 0 -0.000540929)
(6.36932 0 -0.000515417)
(6.37241 0 -0.00049185)
(6.37536 0 -0.000470025)
(6.37817 0 -0.000449759)
(6.38087 0 -0.000430896)
(6.38345 0 -0.000413296)
(6.38592 0 -0.000396834)
(6.38829 0 -0.0003814)
(6.39058 0 -0.000366893)
(6.39277 0 -0.000353223)
(6.39488 0 -0.000340306)
(6.39691 0 -0.000328068)
(6.39887 0 -0.000316438)
(6.40076 0 -0.000305353)
(6.40258 0 -0.000294753)
(6.40433 0 -0.000284585)
(6.40603 0 -0.000274798)
(6.40766 0 -0.000265345)
(6.40924 0 -0.000256183)
(6.41077 0 -0.000247271)
(6.41224 0 -0.000238572)
(6.41366 0 -0.000230052)
(6.41503 0 -0.000221679)
(6.41636 0 -0.000213425)
(6.41763 0 -0.000205263)
(6.41886 0 -0.000197171)
(6.42004 0 -0.000189127)
(6.42118 0 -0.000181113)
(6.42227 0 -0.000173111)
(6.42331 0 -0.000165108)
(6.42431 0 -0.000157091)
(6.42527 0 -0.00014905)
(6.42618 0 -0.000140976)
(6.42705 0 -0.000132862)
(6.42788 0 -0.000124702)
(6.42866 0 -0.000116493)
(6.4294 0 -0.000108231)
(6.43009 0 -9.99162e-05)
(6.43074 0 -9.15473e-05)
(6.43134 0 -8.31252e-05)
(6.4319 0 -7.46519e-05)
(6.43242 0 -6.61296e-05)
(6.43289 0 -5.75623e-05)
(6.43332 0 -4.89534e-05)
(6.4337 0 -4.0303e-05)
(6.43403 0 -3.16174e-05)
(6.43433 0 -2.28954e-05)
(6.43457 0 -1.41637e-05)
(6.43477 0 -5.39924e-06)
(6.43493 0 3.36542e-06)
(6.43504 0 1.2129e-05)
(6.43511 0 2.08883e-05)
(6.43513 0 2.95513e-05)
(6.4351 0 3.83166e-05)
(6.43504 0 4.69825e-05)
(6.43492 0 5.5625e-05)
(6.43476 0 6.42334e-05)
(6.43456 0 7.28008e-05)
(6.43431 0 8.1294e-05)
(6.43402 0 8.97109e-05)
(6.43369 0 9.80746e-05)
(6.43331 0 0.000106366)
(6.43289 0 0.000114568)
(6.43243 0 0.000122686)
(6.43192 0 0.000130716)
(6.43138 0 0.000138676)
(6.43079 0 0.000146515)
(6.43016 0 0.000154218)
(6.42949 0 0.000161791)
(6.42879 0 0.000169231)
(6.42804 0 0.000176533)
(6.42725 0 0.000183691)
(6.42643 0 0.000190697)
(6.42557 0 0.000197547)
(6.42468 0 0.000204235)
(6.42375 0 0.00021076)
(6.42279 0 0.000217117)
(6.42179 0 0.000223309)
(6.42076 0 0.000229335)
(6.4197 0 0.0002352)
(6.41861 0 0.000240905)
(6.41748 0 0.000246454)
(6.41633 0 0.00025185)
(6.41515 0 0.000257092)
(6.41394 0 0.000262182)
(6.4127 0 0.000267117)
(6.41144 0 0.000271893)
(6.41015 0 0.000276502)
(6.40883 0 0.000280939)
(6.40749 0 0.00028519)
(6.40613 0 0.000289245)
(6.40474 0 0.000293088)
(6.40333 0 0.000296706)
(6.40191 0 0.000300078)
(6.40046 0 0.000303189)
(6.399 0 0.000306017)
(6.39752 0 0.000308544)
(6.39603 0 0.000310745)
(6.39452 0 0.0003126)
(6.39301 0 0.000314082)
(6.39149 0 0.00031517)
(6.38996 0 0.000315839)
(6.38843 0 0.000316065)
(6.38689 0 0.000315807)
(6.38536 0 0.000315038)
(6.38383 0 0.000313745)
(6.38231 0 0.00031191)
(6.3808 0 0.000309507)
(6.3793 0 0.000306519)
(6.37781 0 0.000302932)
(6.37635 0 0.000298755)
(6.37491 0 0.000294001)
(6.37349 0 0.000288708)
(6.3721 0 0.000282934)
(6.37074 0 0.000276777)
(6.36942 0 0.000270374)
(6.36813 0 0.000263933)
(6.36687 0 0.000257721)
(6.36565 0 0.000252058)
(6.36446 0 0.000247267)
(6.3633 0 0.000243687)
(6.36217 0 0.000241378)
(6.36107 0 0.000239322)
(6.36002 0 0.000232405)
(6.73378 0 -0.0015559)
(6.5568 0 -0.00608306)
(6.56631 0 -0.00587039)
(6.57914 0 -0.00511892)
(6.59268 0 -0.00442561)
(6.60588 0 -0.00385226)
(6.6184 0 -0.00338346)
(6.63011 0 -0.00299886)
(6.64099 0 -0.0026806)
(6.6511 0 -0.00241453)
(6.66047 0 -0.00218968)
(6.66919 0 -0.00199779)
(6.6773 0 -0.0018325)
(6.68487 0 -0.00168892)
(6.69194 0 -0.00156321)
(6.69856 0 -0.00145238)
(6.70478 0 -0.00135407)
(6.71063 0 -0.00126635)
(6.71614 0 -0.00118766)
(6.72134 0 -0.00111677)
(6.72626 0 -0.0010526)
(6.73092 0 -0.000994312)
(6.73534 0 -0.000941158)
(6.73954 0 -0.000892528)
(6.74353 0 -0.000847899)
(6.74734 0 -0.000806822)
(6.75097 0 -0.000768913)
(6.75444 0 -0.000733837)
(6.75775 0 -0.000701303)
(6.76092 0 -0.000671055)
(6.76396 0 -0.00064287)
(6.76688 0 -0.000616546)
(6.76968 0 -0.000591906)
(6.77237 0 -0.000568789)
(6.77495 0 -0.000547053)
(6.77744 0 -0.000526565)
(6.77984 0 -0.000507206)
(6.78215 0 -0.000488868)
(6.78437 0 -0.00047145)
(6.78652 0 -0.000454859)
(6.78859 0 -0.000439009)
(6.79059 0 -0.000423823)
(6.79252 0 -0.000409228)
(6.79439 0 -0.000395155)
(6.79619 0 -0.000381543)
(6.79793 0 -0.000368332)
(6.79962 0 -0.000355467)
(6.80124 0 -0.0003429)
(6.80281 0 -0.000330585)
(6.80432 0 -0.000318479)
(6.80579 0 -0.000306545)
(6.80719 0 -0.000294747)
(6.80855 0 -0.000283056)
(6.80986 0 -0.000271442)
(6.81112 0 -0.000259881)
(6.81233 0 -0.000248351)
(6.81349 0 -0.000236833)
(6.8146 0 -0.000225311)
(6.81566 0 -0.00021377)
(6.81668 0 -0.000202199)
(6.81765 0 -0.00019059)
(6.81857 0 -0.000178933)
(6.81944 0 -0.000167224)
(6.82027 0 -0.00015546)
(6.82105 0 -0.000143638)
(6.82178 0 -0.000131758)
(6.82246 0 -0.000119821)
(6.8231 0 -0.000107829)
(6.82369 0 -9.57851e-05)
(6.82423 0 -8.36937e-05)
(6.82473 0 -7.15556e-05)
(6.82517 0 -5.93776e-05)
(6.82557 0 -4.71641e-05)
(6.82592 0 -3.49409e-05)
(6.82623 0 -2.26841e-05)
(6.82648 0 -1.04167e-05)
(6.82669 0 1.85381e-06)
(6.82685 0 1.41004e-05)
(6.82697 0 2.63258e-05)
(6.82703 0 3.85317e-05)
(6.82705 0 5.05898e-05)
(6.82702 0 6.27668e-05)
(6.82695 0 7.48031e-05)
(6.82683 0 8.6793e-05)
(6.82666 0 9.86934e-05)
(6.82644 0 0.000110493)
(6.82618 0 0.000122218)
(6.82588 0 0.000133846)
(6.82552 0 0.000145354)
(6.82513 0 0.000156749)
(6.82469 0 0.000168023)
(6.8242 0 0.000179202)
(6.82367 0 0.000190218)
(6.8231 0 0.000201053)
(6.82249 0 0.00021171)
(6.82183 0 0.000222187)
(6.82114 0 0.000232475)
(6.8204 0 0.000242566)
(6.81962 0 0.000252451)
(6.81881 0 0.000262122)
(6.81795 0 0.000271575)
(6.81706 0 0.000280804)
(6.81613 0 0.000289809)
(6.81517 0 0.000298589)
(6.81417 0 0.000307147)
(6.81313 0 0.000315487)
(6.81207 0 0.000323613)
(6.81097 0 0.000331529)
(6.80983 0 0.000339238)
(6.80867 0 0.00034674)
(6.80747 0 0.000354035)
(6.80625 0 0.000361118)
(6.80499 0 0.000367983)
(6.80371 0 0.000374619)
(6.8024 0 0.000381014)
(6.80106 0 0.000387152)
(6.7997 0 0.000393015)
(6.79831 0 0.000398581)
(6.7969 0 0.00040383)
(6.79546 0 0.000408735)
(6.79401 0 0.000413272)
(6.79254 0 0.000417411)
(6.79104 0 0.000421125)
(6.78954 0 0.000424381)
(6.78802 0 0.00042715)
(6.78648 0 0.000429395)
(6.78494 0 0.000431086)
(6.78339 0 0.000432188)
(6.78183 0 0.000432668)
(6.78027 0 0.000432469)
(6.77871 0 0.000431559)
(6.77716 0 0.000429909)
(6.77561 0 0.000427492)
(6.77407 0 0.000424275)
(6.77254 0 0.000420235)
(6.77102 0 0.000415351)
(6.76953 0 0.000409627)
(6.76805 0 0.000403083)
(6.76661 0 0.000395764)
(6.76519 0 0.000387746)
(6.7638 0 0.000379158)
(6.76244 0 0.000370179)
(6.76113 0 0.000361082)
(6.75984 0 0.000352223)
(6.7586 0 0.00034405)
(6.75738 0 0.000337039)
(6.7562 0 0.000331732)
(6.75506 0 0.000328464)
(6.75395 0 0.000326642)
(6.75289 0 0.000322548)
(7.06182 0 -0.00153212)
(6.90167 0 -0.00634202)
(6.9058 0 -0.00660082)
(6.91379 0 -0.00604511)
(6.92359 0 -0.00540622)
(6.93402 0 -0.00482474)
(6.94451 0 -0.00432022)
(6.95475 0 -0.00388821)
(6.9646 0 -0.00351871)
(6.97399 0 -0.00320153)
(6.9829 0 -0.00292767)
(6.99133 0 -0.00268975)
(6.9993 0 -0.00248172)
(7.00684 0 -0.00229869)
(7.01396 0 -0.00213669)
(7.0207 0 -0.00199251)
(7.02708 0 -0.00186354)
(7.03312 0 -0.00174763)
(7.03886 0 -0.00164299)
(7.04431 0 -0.00154816)
(7.04949 0 -0.0014619)
(7.05442 0 -0.00138317)
(7.05912 0 -0.00131108)
(7.0636 0 -0.00124488)
(7.06788 0 -0.00118391)
(7.07197 0 -0.00112763)
(7.07588 0 -0.00107553)
(7.07963 0 -0.00102721)
(7.08322 0 -0.000982281)
(7.08667 0 -0.00094042)
(7.08998 0 -0.000901337)
(7.09316 0 -0.000864771)
(7.09622 0 -0.000830491)
(7.09917 0 -0.000798284)
(7.102 0 -0.000767964)
(7.10474 0 -0.000739356)
(7.10737 0 -0.000712303)
(7.10991 0 -0.000686659)
(7.11237 0 -0.000662293)
(7.11474 0 -0.00063908)
(7.11703 0 -0.000616906)
(7.11924 0 -0.000595666)
(7.12138 0 -0.000575264)
(7.12345 0 -0.000555609)
(7.12545 0 -0.000536616)
(7.12738 0 -0.000518206)
(7.12925 0 -0.000500307)
(7.13106 0 -0.000482851)
(7.1328 0 -0.000465777)
(7.13449 0 -0.000449027)
(7.13612 0 -0.000432552)
(7.1377 0 -0.000416301)
(7.13922 0 -0.000400235)
(7.14068 0 -0.000384312)
(7.14209 0 -0.000368499)
(7.14345 0 -0.000352766)
(7.14476 0 -0.000337085)
(7.14601 0 -0.000321434)
(7.14722 0 -0.000305791)
(7.14837 0 -0.000290141)
(7.14948 0 -0.000274468)
(7.15053 0 -0.000258761)
(7.15153 0 -0.000243011)
(7.15248 0 -0.000227211)
(7.15339 0 -0.000211358)
(7.15424 0 -0.000195449)
(7.15504 0 -0.000179483)
(7.1558 0 -0.000163462)
(7.1565 0 -0.000147387)
(7.15715 0 -0.000131264)
(7.15776 0 -0.000115092)
(7.15831 0 -9.88799e-05)
(7.15882 0 -8.26356e-05)
(7.15927 0 -6.63834e-05)
(7.15968 0 -5.01052e-05)
(7.16003 0 -3.38177e-05)
(7.16034 0 -1.75225e-05)
(7.1606 0 -1.24739e-06)
(7.16081 0 1.49972e-05)
(7.16096 0 3.11888e-05)
(7.16107 0 4.73294e-05)
(7.16114 0 6.34277e-05)
(7.16115 0 7.93249e-05)
(7.16111 0 9.5331e-05)
(7.16103 0 0.000111139)
(7.16089 0 0.000126828)
(7.16071 0 0.000142422)
(7.16049 0 0.000157889)
(7.16021 0 0.000173206)
(7.15989 0 0.000188375)
(7.15952 0 0.000203389)
(7.15911 0 0.000218279)
(7.15865 0 0.000232961)
(7.15815 0 0.000247412)
(7.1576 0 0.000261635)
(7.15701 0 0.000275625)
(7.15638 0 0.000289373)
(7.1557 0 0.000302867)
(7.15498 0 0.000316095)
(7.15422 0 0.000329049)
(7.15342 0 0.000341721)
(7.15259 0 0.000354108)
(7.15171 0 0.000366207)
(7.15079 0 0.000378021)
(7.14984 0 0.000389551)
(7.14885 0 0.000400804)
(7.14783 0 0.000411785)
(7.14677 0 0.000422499)
(7.14567 0 0.000432947)
(7.14455 0 0.000443132)
(7.14339 0 0.000453049)
(7.14219 0 0.000462692)
(7.14097 0 0.000472051)
(7.13971 0 0.00048111)
(7.13843 0 0.000489853)
(7.13711 0 0.000498256)
(7.13577 0 0.000506295)
(7.1344 0 0.00051394)
(7.13301 0 0.000521164)
(7.13159 0 0.000527929)
(7.13015 0 0.000534204)
(7.12868 0 0.00053995)
(7.1272 0 0.000545129)
(7.1257 0 0.000549698)
(7.12419 0 0.000553619)
(7.12266 0 0.000556844)
(7.12112 0 0.000559331)
(7.11957 0 0.000561034)
(7.11801 0 0.000561912)
(7.11645 0 0.00056189)
(7.11489 0 0.000560925)
(7.11333 0 0.000558982)
(7.11177 0 0.000556011)
(7.11022 0 0.000551975)
(7.10868 0 0.000546842)
(7.10716 0 0.000540584)
(7.10566 0 0.000533202)
(7.10417 0 0.000524716)
(7.10271 0 0.000515182)
(7.10128 0 0.000504692)
(7.09988 0 0.000493405)
(7.09852 0 0.000481547)
(7.09719 0 0.000469455)
(7.09589 0 0.000457581)
(7.09464 0 0.000446501)
(7.09342 0 0.000436862)
(7.09223 0 0.000429409)
(7.09108 0 0.000424776)
(7.08997 0 0.00042286)
(7.08891 0 0.000421492)
(7.35752 0 -0.00146153)
(7.21087 0 -0.00632602)
(7.21169 0 -0.00698837)
(7.21583 0 -0.00669359)
(7.22214 0 -0.00618552)
(7.22965 0 -0.00566045)
(7.23776 0 -0.00517074)
(7.2461 0 -0.00472975)
(7.25445 0 -0.00433792)
(7.26266 0 -0.00399126)
(7.27066 0 -0.00368443)
(7.27839 0 -0.0034123)
(7.28583 0 -0.00317018)
(7.29297 0 -0.00295395)
(7.29981 0 -0.00276008)
(7.30636 0 -0.0025856)
(7.31262 0 -0.00242798)
(7.31861 0 -0.00228507)
(7.32434 0 -0.00215506)
(7.32982 0 -0.00203641)
(7.33507 0 -0.00192781)
(7.34009 0 -0.00182812)
(7.3449 0 -0.00173637)
(7.34951 0 -0.00165171)
(7.35394 0 -0.00157342)
(7.35819 0 -0.00150086)
(7.36227 0 -0.00143345)
(7.36619 0 -0.00137071)
(7.36996 0 -0.00131221)
(7.37359 0 -0.00125754)
(7.37709 0 -0.00120636)
(7.38045 0 -0.00115837)
(7.3837 0 -0.00111327)
(7.38683 0 -0.00107082)
(7.38986 0 -0.00103078)
(7.39277 0 -0.000992931)
(7.39559 0 -0.00095709)
(7.39832 0 -0.000923074)
(7.40095 0 -0.000890716)
(7.4035 0 -0.000859862)
(7.40597 0 -0.000830372)
(7.40835 0 -0.000802111)
(7.41066 0 -0.000774958)
(7.4129 0 -0.0007488)
(7.41506 0 -0.000723529)
(7.41715 0 -0.000699046)
(7.41918 0 -0.000675259)
(7.42114 0 -0.000652082)
(7.42304 0 -0.000629437)
(7.42488 0 -0.000607252)
(7.42666 0 -0.000585459)
(7.42838 0 -0.000563998)
(7.43004 0 -0.000542814)
(7.43164 0 -0.000521857)
(7.43319 0 -0.000501082)
(7.43468 0 -0.000480448)
(7.43612 0 -0.000459921)
(7.43751 0 -0.000439469)
(7.43884 0 -0.000419065)
(7.44011 0 -0.000398685)
(7.44134 0 -0.00037831)
(7.44251 0 -0.000357923)
(7.44363 0 -0.000337512)
(7.4447 0 -0.000317066)
(7.44571 0 -0.000296578)
(7.44668 0 -0.000276043)
(7.44759 0 -0.000255458)
(7.44845 0 -0.000234823)
(7.44926 0 -0.00021414)
(7.45002 0 -0.000193411)
(7.45073 0 -0.000172638)
(7.45138 0 -0.000151829)
(7.45199 0 -0.000130993)
(7.45254 0 -0.000110154)
(7.45304 0 -8.93008e-05)
(7.4535 0 -6.84464e-05)
(7.4539 0 -4.75927e-05)
(7.45425 0 -2.67596e-05)
(7.45455 0 -5.95683e-06)
(7.4548 0 1.47858e-05)
(7.455 0 3.54574e-05)
(7.45515 0 5.604e-05)
(7.45525 0 7.65291e-05)
(7.4553 0 9.69308e-05)
(7.4553 0 0.000117144)
(7.45525 0 0.000137267)
(7.45515 0 0.000157243)
(7.455 0 0.00017707)
(7.45481 0 0.000196711)
(7.45457 0 0.000216169)
(7.45428 0 0.000235433)
(7.45394 0 0.000254541)
(7.45356 0 0.000273394)
(7.45313 0 0.000291961)
(7.45265 0 0.000310248)
(7.45213 0 0.000328248)
(7.45157 0 0.000345947)
(7.45096 0 0.000363331)
(7.45031 0 0.000380387)
(7.44961 0 0.000397105)
(7.44888 0 0.000413476)
(7.4481 0 0.000429495)
(7.44729 0 0.000445161)
(7.44643 0 0.000460476)
(7.44554 0 0.000475445)
(7.4446 0 0.000490075)
(7.44363 0 0.000504371)
(7.44263 0 0.000518339)
(7.44158 0 0.000531981)
(7.4405 0 0.000545297)
(7.43939 0 0.000558281)
(7.43824 0 0.000570923)
(7.43706 0 0.000583209)
(7.43585 0 0.000595117)
(7.4346 0 0.000606624)
(7.43332 0 0.000617699)
(7.43202 0 0.000628311)
(7.43068 0 0.00063842)
(7.42932 0 0.000647988)
(7.42793 0 0.000656971)
(7.42652 0 0.000665326)
(7.42509 0 0.000673002)
(7.42363 0 0.000679952)
(7.42216 0 0.000686123)
(7.42066 0 0.000691462)
(7.41915 0 0.000695912)
(7.41763 0 0.000699417)
(7.4161 0 0.00070192)
(7.41456 0 0.000703365)
(7.41302 0 0.000703668)
(7.41147 0 0.000702763)
(7.40992 0 0.000700615)
(7.40837 0 0.000697151)
(7.40684 0 0.000692318)
(7.40531 0 0.000686079)
(7.40379 0 0.0006784)
(7.40229 0 0.000669275)
(7.40081 0 0.000658725)
(7.39936 0 0.000646813)
(7.39793 0 0.000633651)
(7.39654 0 0.000619426)
(7.39517 0 0.000604412)
(7.39385 0 0.000589013)
(7.39256 0 0.00057378)
(7.3913 0 0.000559422)
(7.39008 0 0.000546763)
(7.3889 0 0.000536762)
(7.38776 0 0.000530359)
(7.38665 0 0.00052797)
(7.3856 0 0.000528871)
(7.62886 0 -0.00137763)
(7.4932 0 -0.00612641)
(7.49222 0 -0.00711104)
(7.49371 0 -0.00707944)
(7.49722 0 -0.0067414)