# Probe 0 (-148.88 18.28 2)
# Probe 1 (-7.31 59.55 2)
# Probe 2 (7.31 59.55 2)
# Probe 3 (103.22 12.67 2)
# Probe 4 (272.95 33.51 2)
# Probe 5 (595.53 73.12 2)
#       Probe             0             1             2             3             4             5
#        Time
            1             (8.35399 -4.20459e-06 0.00337619)             (8.15519 0.00286774 0.00117273)             (8.1517 0.0016268 0.00101346)             (8.19734 -5.70973e-05 0.000605857)             (8.1205 -4.02302e-05 0.000468038)             (8.24998 -2.25644e-05 0.000538146)
            2             (8.35352 3.30695e-05 0.00282567)             (8.14694 0.00418245 0.000604679)             (8.14372 0.00204764 0.000487192)             (8.20586 4.56778e-05 0.000155275)             (8.1121 -2.89843e-06 -5.95718e-05)             (8.25004 -1.1e-05 -5.61603e-06)
