# Residuals  
# Time       	p_rgh        	Ux           	Uy           	Uz           	SF6          
0.1          	9.793060e-01	1.244630e-04	1.596590e-01	9.986910e-01	1.000000e+00
0.2          	3.527080e-01	3.135690e-05	9.849810e-02	4.868280e-02	4.422560e-02
0.3          	1.466670e-01	2.043630e-05	2.295970e-02	7.137390e-02	2.982300e-02
0.4          	1.242370e-01	1.840990e-05	1.513970e-02	7.471570e-03	2.696580e-02
0.5          	1.061610e-01	1.717480e-05	1.108230e-02	6.922650e-03	2.239460e-02
0.6          	9.275640e-02	1.649800e-05	9.221570e-03	6.807240e-03	1.854230e-02
0.7          	8.291760e-02	1.594430e-05	8.001580e-03	6.921570e-03	1.523480e-02
0.8          	7.491970e-02	1.567130e-05	7.303850e-03	6.935120e-03	1.335260e-02
0.9          	6.777700e-02	1.554700e-05	6.799030e-03	6.885810e-03	1.172750e-02
1            	6.145830e-02	1.548700e-05	6.402970e-03	6.859720e-03	1.033620e-02
1.1          	5.712700e-02	1.554290e-05	6.056960e-03	6.834700e-03	9.372910e-03
1.2          	5.392680e-02	1.571950e-05	5.772510e-03	6.799590e-03	8.620590e-03
1.3          	5.160100e-02	1.590370e-05	5.535840e-03	6.822610e-03	8.056890e-03
1.4          	4.980140e-02	1.614620e-05	5.301490e-03	6.832130e-03	7.672690e-03
1.5          	4.843510e-02	1.639840e-05	5.082830e-03	6.855390e-03	7.272150e-03
1.6          	4.736830e-02	1.663380e-05	4.866150e-03	6.846570e-03	6.937020e-03
1.7          	4.649740e-02	1.686400e-05	4.679570e-03	6.824210e-03	6.644140e-03
1.8          	4.575190e-02	1.707620e-05	4.511260e-03	6.770950e-03	6.390070e-03
1.9          	4.512490e-02	1.727770e-05	4.348470e-03	6.714810e-03	6.169260e-03
2            	4.462740e-02	1.744460e-05	4.185430e-03	6.633310e-03	5.962650e-03
2.1          	4.421820e-02	1.753760e-05	4.027300e-03	6.560850e-03	5.790000e-03
2.2          	4.392310e-02	1.758530e-05	3.877510e-03	6.460180e-03	5.622030e-03
2.3          	4.367880e-02	1.758040e-05	3.740380e-03	6.384340e-03	5.431600e-03
2.4          	4.347040e-02	1.751980e-05	3.608460e-03	6.264170e-03	5.265590e-03
2.5          	4.327350e-02	1.743740e-05	3.480370e-03	6.134200e-03	5.093400e-03
2.6          	4.305720e-02	1.733370e-05	3.351630e-03	5.995220e-03	4.926910e-03
2.7          	4.288300e-02	1.724360e-05	3.223360e-03	5.844550e-03	4.745840e-03
2.8          	4.273300e-02	1.714890e-05	3.100720e-03	5.666640e-03	4.569080e-03
2.9          	4.259670e-02	1.711660e-05	2.977590e-03	5.500100e-03	4.404410e-03
3            	4.253040e-02	1.717040e-05	2.860180e-03	5.371770e-03	4.131060e-03
3.1          	4.243680e-02	1.728580e-05	2.741830e-03	5.219000e-03	3.984210e-03
3.2          	4.232650e-02	1.749070e-05	2.624440e-03	5.057480e-03	3.777240e-03
3.3          	4.221180e-02	1.769910e-05	2.507970e-03	4.916250e-03	3.569630e-03
3.4          	4.208190e-02	1.781580e-05	2.392660e-03	4.780950e-03	3.352110e-03
3.5          	4.192500e-02	1.785470e-05	2.278370e-03	4.652500e-03	3.137750e-03
3.6          	4.174590e-02	1.775690e-05	2.169420e-03	4.586610e-03	2.916780e-03
3.7          	4.159270e-02	1.761430e-05	2.058290e-03	4.450400e-03	2.705080e-03
3.8          	4.139730e-02	1.735320e-05	1.944270e-03	4.265520e-03	2.514600e-03
3.9          	4.127730e-02	1.710310e-05	1.833380e-03	4.070370e-03	2.240410e-03
4            	4.109290e-02	1.672220e-05	1.723300e-03	3.882380e-03	2.076510e-03
4.1          	4.092480e-02	1.626440e-05	1.614380e-03	3.709110e-03	1.883530e-03
4.2          	4.071920e-02	1.571020e-05	1.508010e-03	3.512390e-03	1.735600e-03
4.3          	4.051980e-02	1.512600e-05	1.407470e-03	3.369650e-03	1.581240e-03
4.4          	4.029720e-02	1.448920e-05	1.305190e-03	3.191190e-03	1.434010e-03
4.5          	4.003750e-02	1.378470e-05	1.207320e-03	3.005120e-03	1.320720e-03
4.6          	3.983330e-02	1.306600e-05	1.110340e-03	2.836690e-03	1.140060e-03
4.7          	3.960230e-02	1.233590e-05	1.017740e-03	2.716030e-03	1.059820e-03
4.8          	3.938820e-02	1.155590e-05	9.317770e-04	2.491250e-03	9.451710e-04
4.9          	3.919660e-02	1.086100e-05	8.530350e-04	2.344900e-03	8.660090e-04
5            	3.900790e-02	1.015670e-05	7.752460e-04	2.180110e-03	7.901360e-04
5.1          	3.884740e-02	9.453010e-06	7.026130e-04	2.016830e-03	7.690970e-04
5.2          	3.871380e-02	8.805740e-06	6.470700e-04	1.914640e-03	7.303830e-04
5.3          	3.856830e-02	8.182960e-06	5.841070e-04	1.774450e-03	6.808560e-04
5.4          	3.842370e-02	7.559790e-06	5.241970e-04	1.672390e-03	6.603240e-04
5.5          	3.832330e-02	7.008270e-06	4.929600e-04	1.624270e-03	5.770100e-04
5.6          	3.822340e-02	6.456740e-06	4.391010e-04	1.460100e-03	5.855710e-04
5.7          	3.812860e-02	5.993740e-06	3.965500e-04	1.355290e-03	5.692660e-04
5.8          	3.804810e-02	5.531510e-06	3.515920e-04	1.155980e-03	5.547320e-04
5.9          	3.798670e-02	5.134600e-06	3.308180e-04	1.181300e-03	5.368690e-04
6            	3.791620e-02	4.753570e-06	3.021400e-04	1.089580e-03	5.199210e-04
6.1          	3.786220e-02	4.387130e-06	2.857470e-04	1.097300e-03	5.386090e-04
6.2          	3.785130e-02	4.007070e-06	2.707820e-04	9.514290e-04	4.755200e-04
6.3          	3.781670e-02	3.719000e-06	2.626880e-04	7.841880e-04	4.964900e-04
6.4          	3.776630e-02	3.453570e-06	2.388800e-04	7.187240e-04	5.108310e-04
6.5          	3.796590e-02	3.701900e-06	2.634630e-04	1.195930e-03	4.614840e-04
6.6          	3.796740e-02	3.521020e-06	2.508040e-04	1.144240e-03	4.597070e-04
6.7          	3.805260e-02	3.304760e-06	2.445680e-04	1.239800e-03	4.541040e-04
6.8          	3.802220e-02	3.118440e-06	2.296430e-04	1.192410e-03	4.495150e-04
6.9          	3.782860e-02	2.998160e-06	2.062790e-04	9.073930e-04	4.489550e-04
7            	3.777860e-02	2.839850e-06	1.939350e-04	8.226460e-04	4.469780e-04
7.1          	3.777090e-02	2.716260e-06	1.866320e-04	8.013790e-04	4.465290e-04
7.2          	3.766750e-02	2.351860e-06	1.695950e-04	6.020150e-04	4.718020e-04
7.3          	3.774620e-02	2.489800e-06	1.726280e-04	6.689730e-04	4.962360e-04
7.4          	3.778470e-02	2.423810e-06	1.725690e-04	7.396780e-04	4.828480e-04
7.5          	3.778880e-02	2.373450e-06	1.706690e-04	7.492910e-04	4.816990e-04
7.6          	3.778200e-02	2.315420e-06	1.686110e-04	7.383940e-04	4.697630e-04
7.7          	3.775650e-02	2.266310e-06	1.661990e-04	7.052750e-04	4.826060e-04
7.8          	3.774280e-02	2.218940e-06	1.650930e-04	6.911910e-04	4.710350e-04
7.9          	3.773180e-02	2.184480e-06	1.637610e-04	6.749100e-04	4.768280e-04
8            	3.772210e-02	2.144550e-06	1.633450e-04	6.665850e-04	4.720250e-04
8.1          	3.771030e-02	2.115130e-06	1.622350e-04	6.506220e-04	4.754440e-04
8.2          	3.770780e-02	2.086110e-06	1.617750e-04	6.486900e-04	4.739990e-04
8.3          	3.769950e-02	2.067410e-06	1.611930e-04	6.453500e-04	4.751900e-04
8.4          	3.769020e-02	2.033290e-06	1.608510e-04	6.373790e-04	4.720180e-04
8.5          	3.768360e-02	2.013050e-06	1.601740e-04	6.281660e-04	4.752860e-04
8.6          	3.767240e-02	1.984220e-06	1.598300e-04	6.174060e-04	4.716780e-04
8.7          	3.766530e-02	1.967320e-06	1.593080e-04	6.115800e-04	4.768520e-04
8.8          	3.765980e-02	1.943900e-06	1.591140e-04	6.062660e-04	4.729000e-04
8.9          	3.763610e-02	1.893570e-06	1.571990e-04	5.749180e-04	4.761060e-04
9            	3.762780e-02	1.871570e-06	1.570630e-04	5.682160e-04	4.709450e-04
9.1          	3.762300e-02	1.859700e-06	1.567020e-04	5.649460e-04	4.754030e-04
9.2          	3.761860e-02	1.843180e-06	1.567510e-04	5.644800e-04	4.721480e-04
9.3          	3.761370e-02	1.833240e-06	1.564470e-04	5.620410e-04	4.757390e-04
9.4          	3.761380e-02	1.819530e-06	1.565560e-04	5.623330e-04	4.716480e-04
9.5          	3.772980e-02	2.163250e-06	1.667050e-04	6.523420e-04	4.762200e-04
9.6          	3.762160e-02	1.806070e-06	1.576410e-04	5.822050e-04	4.692470e-04
9.7          	3.772920e-02	2.147980e-06	1.666460e-04	6.585350e-04	4.760880e-04
9.8          	3.774440e-02	2.141680e-06	1.673280e-04	6.776140e-04	4.709830e-04
9.9          	3.774100e-02	2.139270e-06	1.672070e-04	6.813580e-04	4.748750e-04
10           	3.774280e-02	2.129940e-06	1.672410e-04	6.815790e-04	4.713270e-04
10.1         	3.773360e-02	2.120640e-06	1.669200e-04	6.796800e-04	4.742900e-04
10.2         	3.773290e-02	2.108500e-06	1.669330e-04	6.788180e-04	4.687760e-04
10.3         	3.772890e-02	2.101480e-06	1.666370e-04	6.768290e-04	4.741330e-04
10.4         	3.772710e-02	2.090180e-06	1.666580e-04	6.756500e-04	4.684400e-04
10.5         	3.772190e-02	2.081720e-06	1.664230e-04	6.736560e-04	4.750410e-04
10.6         	3.772440e-02	2.071780e-06	1.664540e-04	6.728800e-04	4.707070e-04
10.7         	3.771500e-02	2.063340e-06	1.662330e-04	6.709650e-04	4.739810e-04
10.8         	3.771470e-02	2.052140e-06	1.663040e-04	6.704710e-04	4.685640e-04
10.9         	3.771210e-02	2.045960e-06	1.660730e-04	6.687560e-04	4.736700e-04
11           	3.771190e-02	2.035540e-06	1.661540e-04	6.682540e-04	4.702610e-04
11.1         	3.770680e-02	2.028460e-06	1.659570e-04	6.666120e-04	4.737170e-04
11.2         	3.770930e-02	2.019360e-06	1.660170e-04	6.661690e-04	4.695540e-04
11.3         	3.770140e-02	2.012140e-06	1.658380e-04	6.646920e-04	4.744480e-04
11.4         	3.770240e-02	2.001780e-06	1.659200e-04	6.645950e-04	4.676560e-04
11.5         	3.769980e-02	1.997020e-06	1.657470e-04	6.632040e-04	4.741800e-04
11.6         	3.769950e-02	1.987440e-06	1.658160e-04	6.629110e-04	4.697180e-04
11.7         	3.769580e-02	1.981800e-06	1.656910e-04	6.617890e-04	4.741670e-04
11.8         	3.769940e-02	1.973560e-06	1.657560e-04	6.615540e-04	4.705520e-04
11.9         	3.769130e-02	1.967890e-06	1.656430e-04	6.605160e-04	4.739140e-04
12           	3.769210e-02	1.958030e-06	1.657300e-04	6.603780e-04	4.679240e-04
12.1         	3.769060e-02	1.954550e-06	1.655930e-04	6.594300e-04	4.738680e-04
12.2         	3.769130e-02	1.945460e-06	1.656750e-04	6.591600e-04	4.679990e-04
12.3         	3.768730e-02	1.940990e-06	1.655900e-04	6.583790e-04	4.750590e-04
12.4         	3.769050e-02	1.933050e-06	1.656700e-04	6.581990e-04	4.700640e-04
12.5         	3.768360e-02	1.928220e-06	1.655670e-04	6.573180e-04	4.740030e-04
12.6         	3.768530e-02	1.919010e-06	1.656900e-04	6.575160e-04	4.679670e-04
12.7         	3.768350e-02	1.916080e-06	1.655720e-04	6.567520e-04	4.735370e-04
12.8         	3.768370e-02	1.907400e-06	1.656770e-04	6.566060e-04	4.699180e-04
12.9         	3.768070e-02	1.903520e-06	1.655890e-04	6.558140e-04	4.737910e-04
13           	3.768480e-02	1.896000e-06	1.656900e-04	6.558100e-04	4.692840e-04
13.1         	3.767750e-02	1.891910e-06	1.656030e-04	6.551650e-04	4.743360e-04
13.2         	3.767880e-02	1.881110e-06	1.657330e-04	6.554250e-04	4.678840e-04
13.3         	3.767760e-02	1.878770e-06	1.656360e-04	6.547800e-04	4.739680e-04
13.4         	3.767860e-02	1.868430e-06	1.657390e-04	6.546200e-04	4.698310e-04
13.5         	3.767500e-02	1.865480e-06	1.656770e-04	6.542240e-04	4.744330e-04
13.6         	3.767860e-02	1.856210e-06	1.657630e-04	6.539980e-04	4.705990e-04
13.7         	3.767200e-02	1.851630e-06	1.657170e-04	6.537550e-04	4.740610e-04
13.8         	3.767420e-02	1.841070e-06	1.658320e-04	6.539070e-04	4.681620e-04
13.9         	3.767230e-02	1.838430e-06	1.657580e-04	6.537550e-04	4.741850e-04
14           	3.767310e-02	1.828440e-06	1.658520e-04	6.534290e-04	4.683000e-04
14.1         	3.767000e-02	1.824910e-06	1.658030e-04	6.532670e-04	4.749990e-04
14.2         	3.767490e-02	1.816360e-06	1.658990e-04	6.532500e-04	4.704020e-04
14.3         	3.766750e-02	1.813000e-06	1.658440e-04	6.530850e-04	4.741340e-04
14.4         	3.766950e-02	1.803210e-06	1.659670e-04	6.532910e-04	4.680710e-04
14.5         	3.766830e-02	1.801350e-06	1.658790e-04	6.530420e-04	4.737330e-04
14.6         	3.766970e-02	1.792270e-06	1.659880e-04	6.529780e-04	4.702370e-04
14.7         	3.766680e-02	1.789960e-06	1.659280e-04	6.527600e-04	4.739750e-04
14.8         	3.767150e-02	1.782120e-06	1.660340e-04	6.527500e-04	4.698070e-04
14.9         	3.766430e-02	1.779850e-06	1.659630e-04	6.526180e-04	4.745500e-04
15           	3.766670e-02	1.770880e-06	1.661010e-04	6.529100e-04	4.677090e-04
15.1         	3.766550e-02	1.770080e-06	1.660030e-04	6.527430e-04	4.738910e-04
15.2         	3.766690e-02	1.761570e-06	1.661020e-04	6.525470e-04	4.698640e-04
15.3         	3.766430e-02	1.760410e-06	1.660540e-04	6.525590e-04	4.743010e-04
15.4         	3.766930e-02	1.753090e-06	1.661370e-04	6.523270e-04	4.707690e-04
15.5         	3.766230e-02	1.752330e-06	1.661170e-04	6.527510e-04	4.739580e-04
15.6         	3.766460e-02	1.743460e-06	1.662100e-04	6.525560e-04	4.680800e-04
15.7         	3.766370e-02	1.743540e-06	1.661140e-04	6.525830e-04	4.739700e-04
15.8         	3.766530e-02	1.735970e-06	1.662220e-04	6.523310e-04	4.680100e-04
15.9         	3.766290e-02	1.735740e-06	1.661670e-04	6.524800e-04	4.751830e-04
16           	3.766770e-02	1.729180e-06	1.662680e-04	6.522900e-04	4.703450e-04
16.1         	3.766100e-02	1.728930e-06	1.661950e-04	6.524830e-04	4.743480e-04
16.2         	3.766350e-02	1.721180e-06	1.663210e-04	6.525640e-04	4.678440e-04
16.3         	3.766270e-02	1.721980e-06	1.662150e-04	6.525570e-04	4.737950e-04
16.4         	3.766420e-02	1.714820e-06	1.663290e-04	6.523560e-04	4.700380e-04
16.5         	3.766190e-02	1.715500e-06	1.662670e-04	6.525010e-04	4.739110e-04
16.6         	3.766700e-02	1.709380e-06	1.663650e-04	6.523790e-04	4.693640e-04
16.7         	3.766030e-02	1.710010e-06	1.662970e-04	6.525960e-04	4.744370e-04
16.8         	3.766280e-02	1.702740e-06	1.664170e-04	6.528150e-04	4.679300e-04
16.9         	3.766210e-02	1.704190e-06	1.663050e-04	6.527410e-04	4.737910e-04
17           	3.766360e-02	1.697530e-06	1.664150e-04	6.525830e-04	4.698640e-04
17.1         	3.766160e-02	1.698790e-06	1.663510e-04	6.527070e-04	4.736910e-04
17.2         	3.766640e-02	1.693150e-06	1.664350e-04	6.526130e-04	4.710800e-04
17.3         	3.766010e-02	1.694370e-06	1.663780e-04	6.528790e-04	4.735610e-04
17.4         	3.766240e-02	1.687260e-06	1.664810e-04	6.527950e-04	4.679170e-04
17.5         	3.766200e-02	1.689380e-06	1.663890e-04	6.530120e-04	4.738260e-04
17.6         	3.766350e-02	1.682830e-06	1.664690e-04	6.526310e-04	4.681380e-04
17.7         	3.766150e-02	1.684780e-06	1.664210e-04	6.531240e-04	4.751300e-04
17.8         	3.766640e-02	1.679290e-06	1.664960e-04	6.527740e-04	4.698310e-04
17.9         	3.766020e-02	1.681110e-06	1.664460e-04	6.532580e-04	4.742940e-04
18           	3.766240e-02	1.674120e-06	1.665440e-04	6.530780e-04	4.679290e-04
18.1         	3.766210e-02	1.676700e-06	1.664490e-04	6.533530e-04	4.737610e-04
18.2         	3.766360e-02	1.670440e-06	1.665420e-04	6.530450e-04	4.695290e-04
18.3         	3.766180e-02	1.672690e-06	1.664820e-04	6.534480e-04	4.737390e-04
18.4         	3.766670e-02	1.667360e-06	1.665710e-04	6.531260e-04	4.693600e-04
18.5         	3.766000e-02	1.668920e-06	1.664170e-04	6.526960e-04	4.743460e-04
18.6         	3.766300e-02	1.662790e-06	1.666230e-04	6.537890e-04	4.675970e-04
18.7         	3.766210e-02	1.665140e-06	1.664400e-04	6.529390e-04	4.735440e-04
18.8         	3.766400e-02	1.659370e-06	1.666230e-04	6.536470e-04	4.698610e-04
18.9         	3.766180e-02	1.661500e-06	1.664700e-04	6.530090e-04	4.735840e-04
19           	3.766660e-02	1.656050e-06	1.665350e-04	6.525080e-04	4.709170e-04
19.1         	3.766030e-02	1.658380e-06	1.664690e-04	6.529640e-04	4.733520e-04
19.2         	3.766270e-02	1.651640e-06	1.665680e-04	6.527870e-04	4.682560e-04
19.3         	3.766230e-02	1.654750e-06	1.664700e-04	6.531150e-04	4.736120e-04
19.4         	3.766390e-02	1.648720e-06	1.665630e-04	6.527160e-04	4.680040e-04
19.5         	3.766200e-02	1.651500e-06	1.665070e-04	6.531900e-04	4.749720e-04
19.6         	3.766690e-02	1.646270e-06	1.665760e-04	6.527970e-04	4.700240e-04
19.7         	3.766070e-02	1.648960e-06	1.665280e-04	6.533340e-04	4.741680e-04
19.8         	3.766310e-02	1.642240e-06	1.666130e-04	6.530360e-04	4.675580e-04
19.9         	3.766270e-02	1.645670e-06	1.665180e-04	6.535230e-04	4.736330e-04
20           	3.766430e-02	1.639640e-06	1.666080e-04	6.530390e-04	4.698220e-04
20.1         	3.766250e-02	1.642670e-06	1.665460e-04	6.535430e-04	4.737410e-04
20.2         	3.766740e-02	1.637530e-06	1.666220e-04	6.530520e-04	4.691740e-04
20.3         	3.766110e-02	1.640280e-06	1.665570e-04	6.535400e-04	4.742860e-04
20.4         	3.766360e-02	1.633890e-06	1.666530e-04	6.534330e-04	4.677180e-04
20.5         	3.766310e-02	1.637290e-06	1.665490e-04	6.536800e-04	4.736010e-04
20.6         	3.766470e-02	1.631450e-06	1.666450e-04	6.532920e-04	4.696690e-04
20.7         	3.766290e-02	1.634610e-06	1.665820e-04	6.537590e-04	4.735580e-04
20.8         	3.766780e-02	1.629580e-06	1.666600e-04	6.533360e-04	4.710110e-04
20.9         	3.766160e-02	1.632510e-06	1.665930e-04	6.538430e-04	4.734070e-04
21           	3.766450e-02	1.626640e-06	1.667830e-04	6.548050e-04	4.682440e-04
21.1         	3.766430e-02	1.630680e-06	1.667110e-04	6.553950e-04	4.735430e-04
21.2         	3.766580e-02	1.624730e-06	1.667790e-04	6.546880e-04	4.679360e-04
21.3         	3.766400e-02	1.628210e-06	1.667390e-04	6.554490e-04	4.747760e-04
21.4         	3.766890e-02	1.623230e-06	1.667930e-04	6.548870e-04	4.700020e-04
21.5         	3.766250e-02	1.626510e-06	1.667050e-04	6.552580e-04	4.741330e-04
21.6         	3.766500e-02	1.619940e-06	1.668120e-04	6.550350e-04	4.674920e-04
21.7         	3.766450e-02	1.623860e-06	1.667060e-04	6.552630e-04	4.737010e-04
21.8         	3.766620e-02	1.617990e-06	1.668040e-04	6.549370e-04	4.696030e-04
21.9         	3.766430e-02	1.621660e-06	1.667230e-04	6.553410e-04	4.738200e-04
22           	3.766910e-02	1.616570e-06	1.667770e-04	6.546010e-04	4.689810e-04
22.1         	3.766300e-02	1.619860e-06	1.667150e-04	6.552930e-04	4.742250e-04
22.2         	3.766540e-02	1.613970e-06	1.668320e-04	6.551650e-04	4.675490e-04
22.3         	3.766500e-02	1.617440e-06	1.666870e-04	6.553480e-04	4.735630e-04
22.4         	3.766640e-02	1.611750e-06	1.667770e-04	6.547430e-04	4.694890e-04
22.5         	3.766480e-02	1.615460e-06	1.667290e-04	6.554470e-04	4.734600e-04
22.6         	3.766960e-02	1.610730e-06	1.668050e-04	6.549340e-04	4.709370e-04
22.7         	3.766350e-02	1.614090e-06	1.667390e-04	6.555180e-04	4.731490e-04
22.8         	3.766580e-02	1.607990e-06	1.668350e-04	6.552480e-04	4.679460e-04
22.9         	3.766550e-02	1.612030e-06	1.667350e-04	6.556270e-04	4.731930e-04
23           	3.766700e-02	1.606410e-06	1.668120e-04	6.549940e-04	4.681860e-04
23.1         	3.766530e-02	1.610140e-06	1.667580e-04	6.556590e-04	4.745870e-04
23.2         	3.767010e-02	1.605520e-06	1.668200e-04	6.551130e-04	4.697960e-04
23.3         	3.766390e-02	1.608970e-06	1.667680e-04	6.557550e-04	4.739060e-04
23.4         	3.766630e-02	1.602810e-06	1.668380e-04	6.552650e-04	4.676520e-04
23.5         	3.766600e-02	1.607030e-06	1.667600e-04	6.558510e-04	4.737160e-04
23.6         	3.766740e-02	1.601370e-06	1.668190e-04	6.550570e-04	4.692800e-04
23.7         	3.766570e-02	1.605440e-06	1.667740e-04	6.558780e-04	4.738860e-04
23.8         	3.767050e-02	1.600610e-06	1.668360e-04	6.551190e-04	4.690840e-04
23.9         	3.766440e-02	1.604220e-06	1.667800e-04	6.557920e-04	4.744780e-04
24           	3.766670e-02	1.598320e-06	1.668660e-04	6.555140e-04	4.671600e-04
24.1         	3.766640e-02	1.602510e-06	1.667680e-04	6.559130e-04	4.736320e-04
24.2         	3.766780e-02	1.597060e-06	1.668510e-04	6.552980e-04	4.695400e-04
24.3         	3.766620e-02	1.600960e-06	1.667840e-04	6.559390e-04	4.735880e-04
24.4         	3.767090e-02	1.596400e-06	1.668520e-04	6.552920e-04	4.707130e-04
24.5         	3.766490e-02	1.600020e-06	1.667880e-04	6.559830e-04	4.732010e-04
24.6         	3.766710e-02	1.594140e-06	1.668880e-04	6.556510e-04	4.683170e-04
24.7         	3.766690e-02	1.598300e-06	1.667720e-04	6.559420e-04	4.731800e-04
24.8         	3.766830e-02	1.593100e-06	1.668650e-04	6.554100e-04	4.680810e-04
24.9         	3.766660e-02	1.596870e-06	1.667980e-04	6.559200e-04	4.743350e-04
25           	3.767140e-02	1.592560e-06	1.668670e-04	6.554710e-04	4.702420e-04
25.1         	3.766530e-02	1.596270e-06	1.667950e-04	6.561580e-04	4.737780e-04
25.2         	3.766750e-02	1.590380e-06	1.668850e-04	6.556130e-04	4.675200e-04
25.3         	3.766730e-02	1.594720e-06	1.668010e-04	6.562050e-04	4.735750e-04
25.4         	3.766870e-02	1.589450e-06	1.668630e-04	6.555020e-04	4.694230e-04
25.5         	3.766710e-02	1.593600e-06	1.668170e-04	6.563160e-04	4.739250e-04
25.6         	3.767180e-02	1.589050e-06	1.668670e-04	6.555050e-04	4.687330e-04
25.7         	3.766570e-02	1.592850e-06	1.668130e-04	6.562460e-04	4.746080e-04
25.8         	3.766790e-02	1.587020e-06	1.668960e-04	6.558220e-04	4.673530e-04
25.9         	3.766770e-02	1.591470e-06	1.668010e-04	6.563390e-04	4.738640e-04
26           	3.766910e-02	1.586220e-06	1.668810e-04	6.556280e-04	4.691470e-04
26.1         	3.766750e-02	1.590260e-06	1.668190e-04	6.563520e-04	4.736450e-04
26.2         	3.767220e-02	1.585900e-06	1.668880e-04	6.556860e-04	4.708210e-04
26.3         	3.766680e-02	1.589650e-06	1.668050e-04	6.562850e-04	4.733250e-04
26.4         	3.766900e-02	1.583930e-06	1.668990e-04	6.558530e-04	4.680550e-04
26.5         	3.766830e-02	1.588400e-06	1.668070e-04	6.563870e-04	4.731970e-04
26.6         	3.766950e-02	1.583250e-06	1.668930e-04	6.557250e-04	4.683690e-04
26.7         	3.766780e-02	1.587250e-06	1.668190e-04	6.562870e-04	4.743520e-04
26.8         	3.767250e-02	1.583110e-06	1.668990e-04	6.557670e-04	4.700900e-04
26.9         	3.766640e-02	1.586790e-06	1.668190e-04	6.563300e-04	4.735760e-04
27           	3.766860e-02	1.581210e-06	1.669120e-04	6.559230e-04	4.680290e-04
27.1         	3.766840e-02	1.585540e-06	1.668110e-04	6.563910e-04	4.735540e-04
27.2         	3.766980e-02	1.580440e-06	1.668920e-04	6.557620e-04	4.693750e-04
27.3         	3.766820e-02	1.584680e-06	1.668320e-04	6.564880e-04	4.738160e-04
27.4         	3.767280e-02	1.580320e-06	1.668950e-04	6.556470e-04	4.689890e-04
27.5         	3.766690e-02	1.584230e-06	1.668290e-04	6.565250e-04	4.745050e-04
27.6         	3.766890e-02	1.578630e-06	1.669250e-04	6.560350e-04	4.670010e-04
27.7         	3.766890e-02	1.583120e-06	1.668340e-04	6.565720e-04	4.738780e-04
27.8         	3.767010e-02	1.577990e-06	1.669160e-04	6.558710e-04	4.693980e-04
27.9         	3.766860e-02	1.582230e-06	1.668290e-04	6.565410e-04	4.736690e-04
28           	3.767310e-02	1.578010e-06	1.669140e-04	6.558260e-04	4.705470e-04
28.1         	3.766720e-02	1.581840e-06	1.668310e-04	6.565290e-04	4.732030e-04
28.2         	3.766920e-02	1.576260e-06	1.669350e-04	6.561230e-04	4.681670e-04
28.3         	3.766920e-02	1.580760e-06	1.668150e-04	6.565350e-04	4.731650e-04
28.4         	3.767050e-02	1.575920e-06	1.669210e-04	6.560100e-04	4.681470e-04
28.5         	3.766890e-02	1.579900e-06	1.668290e-04	6.564920e-04	4.742010e-04
28.6         	3.767350e-02	1.575860e-06	1.669200e-04	6.560170e-04	4.701910e-04
28.7         	3.766750e-02	1.579740e-06	1.668390e-04	6.566030e-04	4.735490e-04
28.8         	3.766960e-02	1.574230e-06	1.669280e-04	6.562090e-04	4.679150e-04
28.9         	3.766940e-02	1.578730e-06	1.668280e-04	6.565880e-04	4.734730e-04
29           	3.767060e-02	1.573690e-06	1.669060e-04	6.558620e-04	4.693130e-04
29.1         	3.766920e-02	1.578030e-06	1.668550e-04	6.566850e-04	4.737960e-04
29.2         	3.767370e-02	1.573740e-06	1.669080e-04	6.558760e-04	4.689670e-04
29.3         	3.766790e-02	1.577790e-06	1.668510e-04	6.567660e-04	4.746000e-04
29.4         	3.766980e-02	1.572210e-06	1.669390e-04	6.561800e-04	4.669860e-04
29.5         	3.766980e-02	1.576930e-06	1.668490e-04	6.567930e-04	4.741080e-04
29.6         	3.767090e-02	1.571660e-06	1.669170e-04	6.558580e-04	4.693770e-04
29.7         	3.766950e-02	1.576130e-06	1.668470e-04	6.567250e-04	4.738310e-04
29.8         	3.767400e-02	1.571970e-06	1.669210e-04	6.560360e-04	4.704440e-04
29.9         	3.766810e-02	1.576060e-06	1.668500e-04	6.568020e-04	4.733520e-04
30           	3.767000e-02	1.570440e-06	1.669450e-04	6.562210e-04	4.681450e-04
30.1         	3.767000e-02	1.575080e-06	1.668310e-04	6.567210e-04	4.733120e-04
30.2         	3.767120e-02	1.570120e-06	1.669180e-04	6.559610e-04	4.681370e-04
30.3         	3.766970e-02	1.574430e-06	1.668470e-04	6.567280e-04	4.743220e-04
30.4         	3.767420e-02	1.570350e-06	1.669260e-04	6.561090e-04	4.703850e-04
30.5         	3.766830e-02	1.574300e-06	1.668440e-04	6.567190e-04	4.735040e-04
30.6         	3.767030e-02	1.568900e-06	1.669430e-04	6.562750e-04	4.678200e-04
30.7         	3.767030e-02	1.573560e-06	1.668380e-04	6.567840e-04	4.732220e-04
30.8         	3.767140e-02	1.568530e-06	1.669130e-04	6.560300e-04	4.698330e-04
30.9         	3.766990e-02	1.572990e-06	1.668680e-04	6.568210e-04	4.737820e-04
31           	3.767440e-02	1.568740e-06	1.669130e-04	6.559710e-04	4.689310e-04
31.1         	3.766850e-02	1.572890e-06	1.668620e-04	6.568350e-04	4.745450e-04
31.2         	3.767040e-02	1.567360e-06	1.669360e-04	6.561890e-04	4.673910e-04
31.3         	3.767050e-02	1.572180e-06	1.668590e-04	6.568700e-04	4.741460e-04
31.4         	3.767160e-02	1.567120e-06	1.669140e-04	6.559890e-04	4.692250e-04
31.5         	3.767010e-02	1.571620e-06	1.668640e-04	6.568490e-04	4.740110e-04
31.6         	3.767460e-02	1.567420e-06	1.669180e-04	6.560250e-04	4.706540e-04
31.7         	3.766870e-02	1.571570e-06	1.668580e-04	6.568540e-04	4.735810e-04
31.8         	3.767070e-02	1.566120e-06	1.669420e-04	6.563240e-04	4.678820e-04
31.9         	3.767070e-02	1.571030e-06	1.668570e-04	6.569600e-04	4.734240e-04
32           	3.767180e-02	1.565940e-06	1.669260e-04	6.560380e-04	4.682730e-04
32.1         	3.767030e-02	1.570240e-06	1.668520e-04	6.567810e-04	4.745180e-04
32.2         	3.767480e-02	1.566290e-06	1.669290e-04	6.561670e-04	4.701380e-04
32.3         	3.766890e-02	1.570370e-06	1.668450e-04	6.567820e-04	4.735370e-04
32.4         	3.767100e-02	1.565010e-06	1.669490e-04	6.564000e-04	4.681600e-04
32.5         	3.767080e-02	1.569670e-06	1.668370e-04	6.567960e-04	4.732070e-04
32.6         	3.767200e-02	1.564860e-06	1.669210e-04	6.561410e-04	4.696000e-04
32.7         	3.767050e-02	1.569200e-06	1.668620e-04	6.567780e-04	4.734040e-04
32.8         	3.767510e-02	1.565150e-06	1.669300e-04	6.561120e-04	4.692700e-04
32.9         	3.766910e-02	1.569330e-06	1.668610e-04	6.569380e-04	4.743690e-04
33           	3.767120e-02	1.563940e-06	1.669450e-04	6.564070e-04	4.672300e-04
33.1         	3.767100e-02	1.568760e-06	1.668570e-04	6.569850e-04	4.738910e-04
33.2         	3.767220e-02	1.563770e-06	1.669210e-04	6.561800e-04	4.693670e-04
33.3         	3.767070e-02	1.568240e-06	1.668580e-04	6.568710e-04	4.739680e-04
33.4         	3.767520e-02	1.564210e-06	1.669280e-04	6.561190e-04	4.705780e-04
33.5         	3.766920e-02	1.568370e-06	1.668560e-04	6.568760e-04	4.735480e-04
33.6         	3.767130e-02	1.563000e-06	1.669530e-04	6.564290e-04	4.680780e-04
33.7         	3.767120e-02	1.567700e-06	1.668540e-04	6.568710e-04	4.733730e-04
33.8         	3.767240e-02	1.562850e-06	1.669320e-04	6.561180e-04	4.682080e-04
33.9         	3.767080e-02	1.567200e-06	1.668540e-04	6.567990e-04	4.744080e-04
34           	3.767540e-02	1.563360e-06	1.669380e-04	6.562860e-04	4.703760e-04
34.1         	3.766940e-02	1.567380e-06	1.668500e-04	6.568150e-04	4.735850e-04
34.2         	3.767150e-02	1.562140e-06	1.669570e-04	6.564970e-04	4.679700e-04
34.3         	3.767130e-02	1.566880e-06	1.668360e-04	6.568700e-04	4.731870e-04
34.4         	3.767250e-02	1.562060e-06	1.669350e-04	6.561900e-04	4.699020e-04
34.5         	3.767100e-02	1.566450e-06	1.668610e-04	6.569040e-04	4.735180e-04
34.6         	3.767550e-02	1.562450e-06	1.669310e-04	6.562090e-04	4.693020e-04
34.7         	3.766950e-02	1.566540e-06	1.668600e-04	6.569160e-04	4.743990e-04
34.8         	3.767160e-02	1.561350e-06	1.669510e-04	6.564970e-04	4.672170e-04
34.9         	3.767150e-02	1.566110e-06	1.668620e-04	6.570150e-04	4.739350e-04
35           	3.767260e-02	1.561160e-06	1.669260e-04	6.562150e-04	4.694060e-04
35.1         	3.767110e-02	1.565730e-06	1.668700e-04	6.570520e-04	4.741120e-04
35.2         	3.767560e-02	1.561670e-06	1.669280e-04	6.561560e-04	4.703680e-04
35.3         	3.766960e-02	1.565840e-06	1.668580e-04	6.569430e-04	4.736980e-04
35.4         	3.767170e-02	1.560410e-06	1.669580e-04	6.564380e-04	4.679140e-04
35.5         	3.767160e-02	1.565280e-06	1.668550e-04	6.570040e-04	4.735710e-04
35.6         	3.767280e-02	1.560480e-06	1.669430e-04	6.562370e-04	4.678980e-04
35.7         	3.767120e-02	1.564870e-06	1.668500e-04	6.568370e-04	4.745590e-04
35.8         	3.767570e-02	1.560970e-06	1.669440e-04	6.562480e-04	4.702160e-04
35.9         	3.766980e-02	1.565020e-06	1.668450e-04	6.568770e-04	4.736760e-04
36           	3.767180e-02	1.559870e-06	1.669630e-04	6.565350e-04	4.677810e-04
36.1         	3.767180e-02	1.564600e-06	1.668520e-04	6.569820e-04	4.732660e-04
36.2         	3.767290e-02	1.559860e-06	1.669420e-04	6.563110e-04	4.699060e-04
36.3         	3.767140e-02	1.564200e-06	1.668550e-04	6.569090e-04	4.734360e-04
36.4         	3.767590e-02	1.560380e-06	1.669470e-04	6.563090e-04	4.690570e-04
36.5         	3.766990e-02	1.564400e-06	1.668540e-04	6.569460e-04	4.741500e-04
36.6         	3.767190e-02	1.559230e-06	1.669640e-04	6.565580e-04	4.675420e-04
36.7         	3.767190e-02	1.564030e-06	1.668570e-04	6.570460e-04	4.737540e-04
36.8         	3.767300e-02	1.559190e-06	1.669330e-04	6.562630e-04	4.691350e-04
36.9         	3.767150e-02	1.563720e-06	1.668650e-04	6.570070e-04	4.739030e-04
37           	3.767590e-02	1.559690e-06	1.669310e-04	6.562090e-04	4.705310e-04
37.1         	3.767000e-02	1.564000e-06	1.668650e-04	6.570480e-04	4.737490e-04
37.2         	3.767200e-02	1.558490e-06	1.669500e-04	6.564120e-04	4.676030e-04
37.3         	3.767200e-02	1.563540e-06	1.668590e-04	6.571370e-04	4.736570e-04
37.4         	3.767310e-02	1.558610e-06	1.669300e-04	6.561490e-04	4.680250e-04
37.5         	3.767160e-02	1.563130e-06	1.668600e-04	6.569410e-04	4.746830e-04
37.6         	3.767600e-02	1.559200e-06	1.669370e-04	6.562670e-04	4.697300e-04
37.7         	3.767010e-02	1.563390e-06	1.668590e-04	6.570020e-04	4.736290e-04
37.8         	3.767210e-02	1.558060e-06	1.669630e-04	6.564660e-04	4.678180e-04