/*--------------------------------*- C++ -*----------------------------------*\
| =========                 |                                                 |
| \\      /  F ield         | OpenFOAM: The Open Source CFD Toolbox           |
|  \\    /   O peration     | Version:  5.x                                   |
|   \\  /    A nd           | Web:      www.OpenFOAM.org                      |
|    \\/     M anipulation  |                                                 |
\*---------------------------------------------------------------------------*/
FoamFile
{
    version     2.0;
    format      ascii;
    class       volScalarField;
    location    "0";
    object      k;
}
// * * * * * * * * * * * * * * * * * * * * * * * * * * * * * * * * * * * * * //

dimensions      [0 2 -2 0 0 0 0];

internalField   nonuniform List<scalar> 
148800
(
0.0070499
0.0070499
0.00640157
0.00640157
0.00603087
0.00603087
0.00579113
0.00579113
0.00562378
0.00562378
0.0055006
0.0055006
0.00540565
0.00540565
0.00532999
0.00532999
0.00526793
0.00526793
0.00521575
0.00521575
0.00517099
0.00517099
0.00513205
0.00513205
0.00509777
0.00509777
0.00506729
0.00506729
0.00503993
0.00503993
0.0050152
0.0050152
0.00499272
0.00499272
0.00497218
0.00497218
0.00495333
0.00495333
0.00493596
0.00493596
0.00491988
0.00491988
0.00490497
0.00490497
0.00489108
0.00489108
0.00487812
0.00487812
0.00486598
0.00486598
0.00485459
0.00485459
0.00484387
0.00484387
0.00483377
0.00483377
0.00482423
0.00482423
0.0048152
0.0048152
0.00480663
0.00480663
0.00479849
0.00479849
0.00479073
0.00479073
0.00478333
0.00478333
0.00477627
0.00477627
0.0047695
0.0047695
0.00476301
0.00476301
0.00475678
0.00475678
0.00475078
0.00475078
0.004745
0.004745
0.00473942
0.00473942
0.00473403
0.00473403
0.00472881
0.00472881
0.00472373
0.00472373
0.00471882
0.00471882
0.00471402
0.00471402
0.00470936
0.00470936
0.0047048
0.0047048
0.00470034
0.00470034
0.00469598
0.00469598
0.00469169
0.00469169
0.00468749
0.00468749
0.00468334
0.00468334
0.00467927
0.00467927
0.00467522
0.00467522
0.00467126
0.00467126
0.00466727
0.00466727
0.00466341
0.00466341
0.00465942
0.00465942
0.00465563
0.00465563
0.0070499
0.0070499
0.00640157
0.00640157
0.00603087
0.00603087
0.00579113
0.00579113
0.00562378
0.00562378
0.0055006
0.0055006
0.00540565
0.00540565
0.00532999
0.00532999
0.00526793
0.00526793
0.00521575
0.00521575
0.00517099
0.00517099
0.00513205
0.00513205
0.00509777
0.00509777
0.00506729
0.00506729
0.00503993
0.00503993
0.0050152
0.0050152
0.00499272
0.00499272
0.00497218
0.00497218
0.00495333
0.00495333
0.00493596
0.00493596
0.00491988
0.00491988
0.00490497
0.00490497
0.00489108
0.00489108
0.00487812
0.00487812
0.00486598
0.00486598
0.00485459
0.00485459
0.00484387
0.00484387
0.00483377
0.00483377
0.00482423
0.00482423
0.0048152
0.0048152
0.00480663
0.00480663
0.00479849
0.00479849
0.00479073
0.00479073
0.00478333
0.00478333
0.00477627
0.00477627
0.0047695
0.0047695
0.00476301
0.00476301
0.00475678
0.00475678
0.00475078
0.00475078
0.004745
0.004745
0.00473942
0.00473942
0.00473403
0.00473403
0.00472881
0.00472881
0.00472373
0.00472373
0.00471882
0.00471882
0.00471402
0.00471402
0.00470936
0.00470936
0.0047048
0.0047048
0.00470034
0.00470034
0.00469598
0.00469598
0.00469169
0.00469169
0.00468749
0.00468749
0.00468334
0.00468334
0.00467927
0.00467927
0.00467522
0.00467522
0.00467126
0.00467126
0.00466727
0.00466727
0.00466341
0.00466341
0.00465942
0.00465942
0.00465563
0.00465563
0.0070499
0.0070499
0.00640156
0.00640156
0.00603087
0.00603087
0.00579113
0.00579113
0.00562379
0.00562379
0.0055006
0.0055006
0.00540565
0.00540565
0.00532999
0.00532999
0.00526793
0.00526793
0.00521575
0.00521575
0.00517099
0.00517099
0.00513204
0.00513204
0.00509777
0.00509777
0.00506729
0.00506729
0.00503992
0.00503992
0.00501519
0.00501519
0.00499271
0.00499271
0.00497217
0.00497217
0.00495332
0.00495332
0.00493595
0.00493595
0.00491987
0.00491987
0.00490495
0.00490495
0.00489107
0.00489107
0.0048781
0.0048781
0.00486596
0.00486596
0.00485457
0.00485457
0.00484386
0.00484386
0.00483376
0.00483376
0.00482422
0.00482422
0.00481518
0.00481518
0.00480662
0.00480662
0.00479847
0.00479847
0.00479072
0.00479072
0.00478332
0.00478332
0.00477626
0.00477626
0.00476949
0.00476949
0.004763
0.004763
0.00475677
0.00475677
0.00475078
0.00475078
0.004745
0.004745
0.00473943
0.00473943
0.00473403
0.00473403
0.00472882
0.00472882
0.00472375
0.00472375
0.00471884
0.00471884
0.00471405
0.00471405
0.00470939
0.00470939
0.00470484
0.00470484
0.00470039
0.00470039
0.00469605
0.00469605
0.00469177
0.00469177
0.00468758
0.00468758
0.00468344
0.00468344
0.00467939
0.00467939
0.00467535
0.00467535
0.00467141
0.00467141
0.00466744
0.00466744
0.00466361
0.00466361
0.00465964
0.00465964
0.00465589
0.00465589
0.0070499
0.0070499
0.00640156
0.00640156
0.00603087
0.00603087
0.00579113
0.00579113
0.00562379
0.00562379
0.0055006
0.0055006
0.00540565
0.00540565
0.00532999
0.00532999
0.00526793
0.00526793
0.00521575
0.00521575
0.00517099
0.00517099
0.00513204
0.00513204
0.00509777
0.00509777
0.00506729
0.00506729
0.00503992
0.00503992
0.00501519
0.00501519
0.00499271
0.00499271
0.00497217
0.00497217
0.00495332
0.00495332
0.00493595
0.00493595
0.00491987
0.00491987
0.00490495
0.00490495
0.00489107
0.00489107
0.0048781
0.0048781
0.00486596
0.00486596
0.00485457
0.00485457
0.00484386
0.00484386
0.00483376
0.00483376
0.00482422
0.00482422
0.00481518
0.00481518
0.00480662
0.00480662
0.00479847
0.00479847
0.00479072
0.00479072
0.00478332
0.00478332
0.00477626
0.00477626
0.00476949
0.00476949
0.004763
0.004763
0.00475677
0.00475677
0.00475078
0.00475078
0.004745
0.004745
0.00473943
0.00473943
0.00473403
0.00473403
0.00472882
0.00472882
0.00472375
0.00472375
0.00471884
0.00471884
0.00471405
0.00471405
0.00470939
0.00470939
0.00470484
0.00470484
0.00470039
0.00470039
0.00469605
0.00469605
0.00469177
0.00469177
0.00468758
0.00468758
0.00468344
0.00468344
0.00467939
0.00467939
0.00467535
0.00467535
0.00467141
0.00467141
0.00466744
0.00466744
0.00466361
0.00466361
0.00465964
0.00465964
0.00465589
0.00465589
0.0070499
0.0070499
0.00640156
0.00640156
0.00603087
0.00603087
0.00579113
0.00579113
0.00562379
0.00562379
0.0055006
0.0055006
0.00540566
0.00540566
0.00532999
0.00532999
0.00526794
0.00526794
0.00521576
0.00521576
0.00517099
0.00517099
0.00513205
0.00513205
0.00509777
0.00509777
0.00506729
0.00506729
0.00503993
0.00503993
0.0050152
0.0050152
0.00499272
0.00499272
0.00497218
0.00497218
0.00495333
0.00495333
0.00493595
0.00493595
0.00491988
0.00491988
0.00490496
0.00490496
0.00489107
0.00489107
0.0048781
0.0048781
0.00486596
0.00486596
0.00485457
0.00485457
0.00484386
0.00484386
0.00483376
0.00483376
0.00482422
0.00482422
0.00481518
0.00481518
0.00480662
0.00480662
0.00479847
0.00479847
0.00479072
0.00479072
0.00478332
0.00478332
0.00477625
0.00477625
0.00476949
0.00476949
0.004763
0.004763
0.00475677
0.00475677
0.00475078
0.00475078
0.004745
0.004745
0.00473944
0.00473944
0.00473404
0.00473404
0.00472883
0.00472883
0.00472377
0.00472377
0.00471886
0.00471886
0.00471408
0.00471408
0.00470942
0.00470942
0.00470488
0.00470488
0.00470044
0.00470044
0.0046961
0.0046961
0.00469183
0.00469183
0.00468765
0.00468765
0.00468352
0.00468352
0.00467948
0.00467948
0.00467546
0.00467546
0.00467154
0.00467154
0.00466758
0.00466758
0.00466377
0.00466377
0.00465983
0.00465983
0.00465611
0.00465611
0.0070499
0.0070499
0.00640156
0.00640156
0.00603087
0.00603087
0.00579113
0.00579113
0.00562379
0.00562379
0.0055006
0.0055006
0.00540566
0.00540566
0.00532999
0.00532999
0.00526794
0.00526794
0.00521576
0.00521576
0.00517099
0.00517099
0.00513205
0.00513205
0.00509777
0.00509777
0.00506729
0.00506729
0.00503993
0.00503993
0.0050152
0.0050152
0.00499272
0.00499272
0.00497218
0.00497218
0.00495333
0.00495333
0.00493595
0.00493595
0.00491988
0.00491988
0.00490496
0.00490496
0.00489107
0.00489107
0.0048781
0.0048781
0.00486596
0.00486596
0.00485457
0.00485457
0.00484386
0.00484386
0.00483376
0.00483376
0.00482422
0.00482422
0.00481518
0.00481518
0.00480662
0.00480662
0.00479847
0.00479847
0.00479072
0.00479072
0.00478332
0.00478332
0.00477625
0.00477625
0.00476949
0.00476949
0.004763
0.004763
0.00475677
0.00475677
0.00475078
0.00475078
0.004745
0.004745
0.00473944
0.00473944
0.00473404
0.00473404
0.00472883
0.00472883
0.00472377
0.00472377
0.00471886
0.00471886
0.00471408
0.00471408
0.00470942
0.00470942
0.00470488
0.00470488
0.00470044
0.00470044
0.0046961
0.0046961
0.00469183
0.00469183
0.00468765
0.00468765
0.00468352
0.00468352
0.00467948
0.00467948
0.00467546
0.00467546
0.00467154
0.00467154
0.00466758
0.00466758
0.00466377
0.00466377
0.00465983
0.00465983
0.00465611
0.00465611
0.0070499
0.0070499
0.00640156
0.00640156
0.00603087
0.00603087
0.00579113
0.00579113
0.00562379
0.00562379
0.0055006
0.0055006
0.00540566
0.00540566
0.00533
0.00533
0.00526794
0.00526794
0.00521576
0.00521576
0.005171
0.005171
0.00513206
0.00513206
0.00509778
0.00509778
0.0050673
0.0050673
0.00503994
0.00503994
0.0050152
0.0050152
0.00499273
0.00499273
0.00497219
0.00497219
0.00495334
0.00495334
0.00493596
0.00493596
0.00491988
0.00491988
0.00490497
0.00490497
0.00489108
0.00489108
0.00487811
0.00487811
0.00486597
0.00486597
0.00485458
0.00485458
0.00484387
0.00484387
0.00483376
0.00483376
0.00482422
0.00482422
0.00481519
0.00481519
0.00480662
0.00480662
0.00479848
0.00479848
0.00479072
0.00479072
0.00478333
0.00478333
0.00477626
0.00477626
0.00476949
0.00476949
0.00476301
0.00476301
0.00475678
0.00475678
0.00475079
0.00475079
0.00474501
0.00474501
0.00473944
0.00473944
0.00473405
0.00473405
0.00472884
0.00472884
0.00472378
0.00472378
0.00471887
0.00471887
0.00471409
0.00471409
0.00470944
0.00470944
0.0047049
0.0047049
0.00470046
0.00470046
0.00469613
0.00469613
0.00469186
0.00469186
0.0046877
0.0046877
0.00468357
0.00468357
0.00467954
0.00467954
0.00467553
0.00467553
0.00467161
0.00467161
0.00466767
0.00466767
0.00466387
0.00466387
0.00465994
0.00465994
0.00465624
0.00465624
0.0070499
0.0070499
0.00640156
0.00640156
0.00603087
0.00603087
0.00579113
0.00579113
0.00562379
0.00562379
0.0055006
0.0055006
0.00540566
0.00540566
0.00533
0.00533
0.00526794
0.00526794
0.00521576
0.00521576
0.005171
0.005171
0.00513206
0.00513206
0.00509778
0.00509778
0.0050673
0.0050673
0.00503994
0.00503994
0.0050152
0.0050152
0.00499273
0.00499273
0.00497219
0.00497219
0.00495334
0.00495334
0.00493596
0.00493596
0.00491988
0.00491988
0.00490497
0.00490497
0.00489108
0.00489108
0.00487811
0.00487811
0.00486597
0.00486597
0.00485458
0.00485458
0.00484387
0.00484387
0.00483376
0.00483376
0.00482422
0.00482422
0.00481519
0.00481519
0.00480662
0.00480662
0.00479848
0.00479848
0.00479072
0.00479072
0.00478333
0.00478333
0.00477626
0.00477626
0.00476949
0.00476949
0.00476301
0.00476301
0.00475678
0.00475678
0.00475079
0.00475079
0.00474501
0.00474501
0.00473944
0.00473944
0.00473405
0.00473405
0.00472884
0.00472884
0.00472378
0.00472378
0.00471887
0.00471887
0.00471409
0.00471409
0.00470944
0.00470944
0.0047049
0.0047049
0.00470046
0.00470046
0.00469613
0.00469613
0.00469186
0.00469186
0.0046877
0.0046877
0.00468357
0.00468357
0.00467954
0.00467954
0.00467553
0.00467553
0.00467161
0.00467161
0.00466767
0.00466767
0.00466387
0.00466387
0.00465994
0.00465994
0.00465624
0.00465624
0.0070499
0.0070499
0.00640156
0.00640156
0.00603088
0.00603088
0.00579113
0.00579113
0.00562379
0.00562379
0.00550061
0.00550061
0.00540566
0.00540566
0.00533
0.00533
0.00526795
0.00526795
0.00521577
0.00521577
0.00517101
0.00517101
0.00513207
0.00513207
0.00509779
0.00509779
0.00506731
0.00506731
0.00503995
0.00503995
0.00501522
0.00501522
0.00499274
0.00499274
0.0049722
0.0049722
0.00495335
0.00495335
0.00493598
0.00493598
0.0049199
0.0049199
0.00490498
0.00490498
0.00489109
0.00489109
0.00487813
0.00487813
0.00486599
0.00486599
0.0048546
0.0048546
0.00484388
0.00484388
0.00483378
0.00483378
0.00482424
0.00482424
0.00481521
0.00481521
0.00480664
0.00480664
0.00479849
0.00479849
0.00479074
0.00479074
0.00478334
0.00478334
0.00477628
0.00477628
0.00476951
0.00476951
0.00476303
0.00476303
0.0047568
0.0047568
0.00475081
0.00475081
0.00474503
0.00474503
0.00473946
0.00473946
0.00473407
0.00473407
0.00472886
0.00472886
0.0047238
0.0047238
0.0047189
0.0047189
0.00471412
0.00471412
0.00470947
0.00470947
0.00470493
0.00470493
0.00470049
0.00470049
0.00469616
0.00469616
0.00469189
0.00469189
0.00468773
0.00468773
0.00468361
0.00468361
0.00467958
0.00467958
0.00467558
0.00467558
0.00467167
0.00467167
0.00466773
0.00466773
0.00466394
0.00466394
0.00466002
0.00466002
0.00465633
0.00465633
0.0070499
0.0070499
0.00640156
0.00640156
0.00603088
0.00603088
0.00579113
0.00579113
0.00562379
0.00562379
0.00550061
0.00550061
0.00540566
0.00540566
0.00533
0.00533
0.00526795
0.00526795
0.00521577
0.00521577
0.00517101
0.00517101
0.00513207
0.00513207
0.00509779
0.00509779
0.00506731
0.00506731
0.00503995
0.00503995
0.00501522
0.00501522
0.00499274
0.00499274
0.0049722
0.0049722
0.00495335
0.00495335
0.00493598
0.00493598
0.0049199
0.0049199
0.00490498
0.00490498
0.00489109
0.00489109
0.00487813
0.00487813
0.00486599
0.00486599
0.0048546
0.0048546
0.00484388
0.00484388
0.00483378
0.00483378
0.00482424
0.00482424
0.00481521
0.00481521
0.00480664
0.00480664
0.00479849
0.00479849
0.00479074
0.00479074
0.00478334
0.00478334
0.00477628
0.00477628
0.00476951
0.00476951
0.00476303
0.00476303
0.0047568
0.0047568
0.00475081
0.00475081
0.00474503
0.00474503
0.00473946
0.00473946
0.00473407
0.00473407
0.00472886
0.00472886
0.0047238
0.0047238
0.0047189
0.0047189
0.00471412
0.00471412
0.00470947
0.00470947
0.00470493
0.00470493
0.00470049
0.00470049
0.00469616
0.00469616
0.00469189
0.00469189
0.00468773
0.00468773
0.00468361
0.00468361
0.00467958
0.00467958
0.00467558
0.00467558
0.00467167
0.00467167
0.00466773
0.00466773
0.00466394
0.00466394
0.00466002
0.00466002
0.00465633
0.00465633
0.0070499
0.0070499
0.00640156
0.00640156
0.00603088
0.00603088
0.00579114
0.00579114
0.0056238
0.0056238
0.00550061
0.00550061
0.00540567
0.00540567
0.00533001
0.00533001
0.00526796
0.00526796
0.00521578
0.00521578
0.00517102
0.00517102
0.00513208
0.00513208
0.00509781
0.00509781
0.00506732
0.00506732
0.00503997
0.00503997
0.00501523
0.00501523
0.00499276
0.00499276
0.00497222
0.00497222
0.00495337
0.00495337
0.004936
0.004936
0.00491992
0.00491992
0.004905
0.004905
0.00489112
0.00489112
0.00487815
0.00487815
0.00486601
0.00486601
0.00485462
0.00485462
0.00484391
0.00484391
0.00483381
0.00483381
0.00482427
0.00482427
0.00481523
0.00481523
0.00480666
0.00480666
0.00479852
0.00479852
0.00479077
0.00479077
0.00478337
0.00478337
0.0047763
0.0047763
0.00476954
0.00476954
0.00476305
0.00476305
0.00475682
0.00475682
0.00475083
0.00475083
0.00474506
0.00474506
0.00473949
0.00473949
0.0047341
0.0047341
0.00472889
0.00472889
0.00472383
0.00472383
0.00471893
0.00471893
0.00471415
0.00471415
0.0047095
0.0047095
0.00470496
0.00470496
0.00470052
0.00470052
0.00469619
0.00469619
0.00469193
0.00469193
0.00468777
0.00468777
0.00468365
0.00468365
0.00467963
0.00467963
0.00467562
0.00467562
0.00467172
0.00467172
0.00466778
0.00466778
0.004664
0.004664
0.00466008
0.00466008
0.0046564
0.0046564
0.0070499
0.0070499
0.00640156
0.00640156
0.00603088
0.00603088
0.00579114
0.00579114
0.0056238
0.0056238
0.00550061
0.00550061
0.00540567
0.00540567
0.00533001
0.00533001
0.00526796
0.00526796
0.00521578
0.00521578
0.00517102
0.00517102
0.00513208
0.00513208
0.00509781
0.00509781
0.00506732
0.00506732
0.00503997
0.00503997
0.00501523
0.00501523
0.00499276
0.00499276
0.00497222
0.00497222
0.00495337
0.00495337
0.004936
0.004936
0.00491992
0.00491992
0.004905
0.004905
0.00489112
0.00489112
0.00487815
0.00487815
0.00486601
0.00486601
0.00485462
0.00485462
0.00484391
0.00484391
0.00483381
0.00483381
0.00482427
0.00482427
0.00481523
0.00481523
0.00480666
0.00480666
0.00479852
0.00479852
0.00479077
0.00479077
0.00478337
0.00478337
0.0047763
0.0047763
0.00476954
0.00476954
0.00476305
0.00476305
0.00475682
0.00475682
0.00475083
0.00475083
0.00474506
0.00474506
0.00473949
0.00473949
0.0047341
0.0047341
0.00472889
0.00472889
0.00472383
0.00472383
0.00471893
0.00471893
0.00471415
0.00471415
0.0047095
0.0047095
0.00470496
0.00470496
0.00470052
0.00470052
0.00469619
0.00469619
0.00469193
0.00469193
0.00468777
0.00468777
0.00468365
0.00468365
0.00467963
0.00467963
0.00467562
0.00467562
0.00467172
0.00467172
0.00466778
0.00466778
0.004664
0.004664
0.00466008
0.00466008
0.0046564
0.0046564
0.0070499
0.0070499
0.00640157
0.00640157
0.00603088
0.00603088
0.00579114
0.00579114
0.0056238
0.0056238
0.00550062
0.00550062
0.00540568
0.00540568
0.00533002
0.00533002
0.00526797
0.00526797
0.00521579
0.00521579
0.00517104
0.00517104
0.0051321
0.0051321
0.00509782
0.00509782
0.00506734
0.00506734
0.00503999
0.00503999
0.00501526
0.00501526
0.00499278
0.00499278
0.00497225
0.00497225
0.0049534
0.0049534
0.00493602
0.00493602
0.00491995
0.00491995
0.00490503
0.00490503
0.00489115
0.00489115
0.00487818
0.00487818
0.00486605
0.00486605
0.00485466
0.00485466
0.00484394
0.00484394
0.00483384
0.00483384
0.0048243
0.0048243
0.00481527
0.00481527
0.0048067
0.0048067
0.00479856
0.00479856
0.00479081
0.00479081
0.00478341
0.00478341
0.00477635
0.00477635
0.00476958
0.00476958
0.0047631
0.0047631
0.00475687
0.00475687
0.00475088
0.00475088
0.0047451
0.0047451
0.00473954
0.00473954
0.00473415
0.00473415
0.00472894
0.00472894
0.00472388
0.00472388
0.00471897
0.00471897
0.0047142
0.0047142
0.00470955
0.00470955
0.00470501
0.00470501
0.00470058
0.00470058
0.00469625
0.00469625
0.00469199
0.00469199
0.00468783
0.00468783
0.00468371
0.00468371
0.00467969
0.00467969
0.00467568
0.00467568
0.00467178
0.00467178
0.00466785
0.00466785
0.00466406
0.00466406
0.00466015
0.00466015
0.00465647
0.00465647
0.0070499
0.0070499
0.00640157
0.00640157
0.00603088
0.00603088
0.00579114
0.00579114
0.0056238
0.0056238
0.00550062
0.00550062
0.00540568
0.00540568
0.00533002
0.00533002
0.00526797
0.00526797
0.00521579
0.00521579
0.00517104
0.00517104
0.0051321
0.0051321
0.00509782
0.00509782
0.00506734
0.00506734
0.00503999
0.00503999
0.00501526
0.00501526
0.00499278
0.00499278
0.00497225
0.00497225
0.0049534
0.0049534
0.00493602
0.00493602
0.00491995
0.00491995
0.00490503
0.00490503
0.00489115
0.00489115
0.00487818
0.00487818
0.00486605
0.00486605
0.00485466
0.00485466
0.00484394
0.00484394
0.00483384
0.00483384
0.0048243
0.0048243
0.00481527
0.00481527
0.0048067
0.0048067
0.00479856
0.00479856
0.00479081
0.00479081
0.00478341
0.00478341
0.00477635
0.00477635
0.00476958
0.00476958
0.0047631
0.0047631
0.00475687
0.00475687
0.00475088
0.00475088
0.0047451
0.0047451
0.00473954
0.00473954
0.00473415
0.00473415
0.00472894
0.00472894
0.00472388
0.00472388
0.00471897
0.00471897
0.0047142
0.0047142
0.00470955
0.00470955
0.00470501
0.00470501
0.00470058
0.00470058
0.00469625
0.00469625
0.00469199
0.00469199
0.00468783
0.00468783
0.00468371
0.00468371
0.00467969
0.00467969
0.00467568
0.00467568
0.00467178
0.00467178
0.00466785
0.00466785
0.00466406
0.00466406
0.00466015
0.00466015
0.00465647
0.00465647
0.0070499
0.0070499
0.00640157
0.00640157
0.00603088
0.00603088
0.00579114
0.00579114
0.00562381
0.00562381
0.00550063
0.00550063
0.00540569
0.00540569
0.00533003
0.00533003
0.00526799
0.00526799
0.00521581
0.00521581
0.00517106
0.00517106
0.00513212
0.00513212
0.00509785
0.00509785
0.00506737
0.00506737
0.00504001
0.00504001
0.00501529
0.00501529
0.00499281
0.00499281
0.00497228
0.00497228
0.00495343
0.00495343
0.00493606
0.00493606
0.00491999
0.00491999
0.00490507
0.00490507
0.00489119
0.00489119
0.00487822
0.00487822
0.00486609
0.00486609
0.0048547
0.0048547
0.00484399
0.00484399
0.00483389
0.00483389
0.00482435
0.00482435
0.00481532
0.00481532
0.00480675
0.00480675
0.00479861
0.00479861
0.00479086
0.00479086
0.00478346
0.00478346
0.0047764
0.0047764
0.00476963
0.00476963
0.00476315
0.00476315
0.00475692
0.00475692
0.00475093
0.00475093
0.00474516
0.00474516
0.00473959
0.00473959
0.00473421
0.00473421
0.004729
0.004729
0.00472394
0.00472394
0.00471904
0.00471904
0.00471426
0.00471426
0.00470961
0.00470961
0.00470508
0.00470508
0.00470065
0.00470065
0.00469632
0.00469632
0.00469206
0.00469206
0.0046879
0.0046879
0.00468378
0.00468378
0.00467976
0.00467976
0.00467576
0.00467576
0.00467186
0.00467186
0.00466793
0.00466793
0.00466415
0.00466415
0.00466023
0.00466023
0.00465655
0.00465655
0.0070499
0.0070499
0.00640157
0.00640157
0.00603088
0.00603088
0.00579114
0.00579114
0.00562381
0.00562381
0.00550063
0.00550063
0.00540569
0.00540569
0.00533003
0.00533003
0.00526799
0.00526799
0.00521581
0.00521581
0.00517106
0.00517106
0.00513212
0.00513212
0.00509785
0.00509785
0.00506737
0.00506737
0.00504001
0.00504001
0.00501529
0.00501529
0.00499281
0.00499281
0.00497228
0.00497228
0.00495343
0.00495343
0.00493606
0.00493606
0.00491999
0.00491999
0.00490507
0.00490507
0.00489119
0.00489119
0.00487822
0.00487822
0.00486609
0.00486609
0.0048547
0.0048547
0.00484399
0.00484399
0.00483389
0.00483389
0.00482435
0.00482435
0.00481532
0.00481532
0.00480675
0.00480675
0.00479861
0.00479861
0.00479086
0.00479086
0.00478346
0.00478346
0.0047764
0.0047764
0.00476963
0.00476963
0.00476315
0.00476315
0.00475692
0.00475692
0.00475093
0.00475093
0.00474516
0.00474516
0.00473959
0.00473959
0.00473421
0.00473421
0.004729
0.004729
0.00472394
0.00472394
0.00471904
0.00471904
0.00471426
0.00471426
0.00470961
0.00470961
0.00470508
0.00470508
0.00470065
0.00470065
0.00469632
0.00469632
0.00469206
0.00469206
0.0046879
0.0046879
0.00468378
0.00468378
0.00467976
0.00467976
0.00467576
0.00467576
0.00467186
0.00467186
0.00466793
0.00466793
0.00466415
0.00466415
0.00466023
0.00466023
0.00465655
0.00465655
0.0070499
0.0070499
0.00640157
0.00640157
0.00603088
0.00603088
0.00579115
0.00579115
0.00562382
0.00562382
0.00550064
0.00550064
0.0054057
0.0054057
0.00533005
0.00533005
0.005268
0.005268
0.00521583
0.00521583
0.00517108
0.00517108
0.00513214
0.00513214
0.00509788
0.00509788
0.0050674
0.0050674
0.00504005
0.00504005
0.00501532
0.00501532
0.00499285
0.00499285
0.00497232
0.00497232
0.00495348
0.00495348
0.00493611
0.00493611
0.00492004
0.00492004
0.00490512
0.00490512
0.00489124
0.00489124
0.00487828
0.00487828
0.00486615
0.00486615
0.00485476
0.00485476
0.00484405
0.00484405
0.00483395
0.00483395
0.00482441
0.00482441
0.00481538
0.00481538
0.00480682
0.00480682
0.00479868
0.00479868
0.00479093
0.00479093
0.00478353
0.00478353
0.00477647
0.00477647
0.00476971
0.00476971
0.00476323
0.00476323
0.004757
0.004757
0.00475102
0.00475102
0.00474524
0.00474524
0.00473968
0.00473968
0.00473429
0.00473429
0.00472909
0.00472909
0.00472403
0.00472403
0.00471913
0.00471913
0.00471436
0.00471436
0.00470971
0.00470971
0.00470518
0.00470518
0.00470075
0.00470075
0.00469642
0.00469642
0.00469216
0.00469216
0.00468801
0.00468801
0.00468389
0.00468389
0.00467987
0.00467987
0.00467587
0.00467587
0.00467198
0.00467198
0.00466805
0.00466805
0.00466427
0.00466427
0.00466035
0.00466035
0.00465667
0.00465667
0.0070499
0.0070499
0.00640157
0.00640157
0.00603088
0.00603088
0.00579115
0.00579115
0.00562382
0.00562382
0.00550064
0.00550064
0.0054057
0.0054057
0.00533005
0.00533005
0.005268
0.005268
0.00521583
0.00521583
0.00517108
0.00517108
0.00513214
0.00513214
0.00509788
0.00509788
0.0050674
0.0050674
0.00504005
0.00504005
0.00501532
0.00501532
0.00499285
0.00499285
0.00497232
0.00497232
0.00495348
0.00495348
0.00493611
0.00493611
0.00492004
0.00492004
0.00490512
0.00490512
0.00489124
0.00489124
0.00487828
0.00487828
0.00486615
0.00486615
0.00485476
0.00485476
0.00484405
0.00484405
0.00483395
0.00483395
0.00482441
0.00482441
0.00481538
0.00481538
0.00480682
0.00480682
0.00479868
0.00479868
0.00479093
0.00479093
0.00478353
0.00478353
0.00477647
0.00477647
0.00476971
0.00476971
0.00476323
0.00476323
0.004757
0.004757
0.00475102
0.00475102
0.00474524
0.00474524
0.00473968
0.00473968
0.00473429
0.00473429
0.00472909
0.00472909
0.00472403
0.00472403
0.00471913
0.00471913
0.00471436
0.00471436
0.00470971
0.00470971
0.00470518
0.00470518
0.00470075
0.00470075
0.00469642
0.00469642
0.00469216
0.00469216
0.00468801
0.00468801
0.00468389
0.00468389
0.00467987
0.00467987
0.00467587
0.00467587
0.00467198
0.00467198
0.00466805
0.00466805
0.00466427
0.00466427
0.00466035
0.00466035
0.00465667
0.00465667
0.0070499
0.0070499
0.00640157
0.00640157
0.00603089
0.00603089
0.00579116
0.00579116
0.00562383
0.00562383
0.00550065
0.00550065
0.00540572
0.00540572
0.00533007
0.00533007
0.00526803
0.00526803
0.00521586
0.00521586
0.00517111
0.00517111
0.00513218
0.00513218
0.00509791
0.00509791
0.00506744
0.00506744
0.00504009
0.00504009
0.00501537
0.00501537
0.0049929
0.0049929
0.00497237
0.00497237
0.00495353
0.00495353
0.00493616
0.00493616
0.00492009
0.00492009
0.00490518
0.00490518
0.0048913
0.0048913
0.00487834
0.00487834
0.00486621
0.00486621
0.00485483
0.00485483
0.00484412
0.00484412
0.00483402
0.00483402
0.00482449
0.00482449
0.00481546
0.00481546
0.0048069
0.0048069
0.00479876
0.00479876
0.00479101
0.00479101
0.00478362
0.00478362
0.00477656
0.00477656
0.0047698
0.0047698
0.00476332
0.00476332
0.0047571
0.0047571
0.00475112
0.00475112
0.00474534
0.00474534
0.00473978
0.00473978
0.0047344
0.0047344
0.00472919
0.00472919
0.00472414
0.00472414
0.00471924
0.00471924
0.00471447
0.00471447
0.00470983
0.00470983
0.0047053
0.0047053
0.00470087
0.00470087
0.00469655
0.00469655
0.00469229
0.00469229
0.00468814
0.00468814
0.00468403
0.00468403
0.00468001
0.00468001
0.00467602
0.00467602
0.00467212
0.00467212
0.0046682
0.0046682
0.00466442
0.00466442
0.0046605
0.0046605
0.00465683
0.00465683
0.0070499
0.0070499
0.00640157
0.00640157
0.00603089
0.00603089
0.00579116
0.00579116
0.00562383
0.00562383
0.00550065
0.00550065
0.00540572
0.00540572
0.00533007
0.00533007
0.00526803
0.00526803
0.00521586
0.00521586
0.00517111
0.00517111
0.00513218
0.00513218
0.00509791
0.00509791
0.00506744
0.00506744
0.00504009
0.00504009
0.00501537
0.00501537
0.0049929
0.0049929
0.00497237
0.00497237
0.00495353
0.00495353
0.00493616
0.00493616
0.00492009
0.00492009
0.00490518
0.00490518
0.0048913
0.0048913
0.00487834
0.00487834
0.00486621
0.00486621
0.00485483
0.00485483
0.00484412
0.00484412
0.00483402
0.00483402
0.00482449
0.00482449
0.00481546
0.00481546
0.0048069
0.0048069
0.00479876
0.00479876
0.00479101
0.00479101
0.00478362
0.00478362
0.00477656
0.00477656
0.0047698
0.0047698
0.00476332
0.00476332
0.0047571
0.0047571
0.00475112
0.00475112
0.00474534
0.00474534
0.00473978
0.00473978
0.0047344
0.0047344
0.00472919
0.00472919
0.00472414
0.00472414
0.00471924
0.00471924
0.00471447
0.00471447
0.00470983
0.00470983
0.0047053
0.0047053
0.00470087
0.00470087
0.00469655
0.00469655
0.00469229
0.00469229
0.00468814
0.00468814
0.00468403
0.00468403
0.00468001
0.00468001
0.00467602
0.00467602
0.00467212
0.00467212
0.0046682
0.0046682
0.00466442
0.00466442
0.0046605
0.0046605
0.00465683
0.00465683
0.0070499
0.0070499
0.00640157
0.00640157
0.00603089
0.00603089
0.00579116
0.00579116
0.00562384
0.00562384
0.00550067
0.00550067
0.00540574
0.00540574
0.0053301
0.0053301
0.00526806
0.00526806
0.00521589
0.00521589
0.00517115
0.00517115
0.00513222
0.00513222
0.00509796
0.00509796
0.00506749
0.00506749
0.00504015
0.00504015
0.00501543
0.00501543
0.00499297
0.00499297
0.00497244
0.00497244
0.0049536
0.0049536
0.00493624
0.00493624
0.00492018
0.00492018
0.00490527
0.00490527
0.00489139
0.00489139
0.00487844
0.00487844
0.00486631
0.00486631
0.00485493
0.00485493
0.00484422
0.00484422
0.00483413
0.00483413
0.0048246
0.0048246
0.00481557
0.00481557
0.00480702
0.00480702
0.00479888
0.00479888
0.00479114
0.00479114
0.00478375
0.00478375
0.00477669
0.00477669
0.00476993
0.00476993
0.00476346
0.00476346
0.00475724
0.00475724
0.00475126
0.00475126
0.00474549
0.00474549
0.00473993
0.00473993
0.00473455
0.00473455
0.00472935
0.00472935
0.0047243
0.0047243
0.0047194
0.0047194
0.00471463
0.00471463
0.00470999
0.00470999
0.00470547
0.00470547
0.00470104
0.00470104
0.00469672
0.00469672
0.00469247
0.00469247
0.00468832
0.00468832
0.00468421
0.00468421
0.0046802
0.0046802
0.00467621
0.00467621
0.00467232
0.00467232
0.00466839
0.00466839
0.00466462
0.00466462
0.00466071
0.00466071
0.00465704
0.00465704
0.0070499
0.0070499
0.00640157
0.00640157
0.00603089
0.00603089
0.00579116
0.00579116
0.00562384
0.00562384
0.00550067
0.00550067
0.00540574
0.00540574
0.0053301
0.0053301
0.00526806
0.00526806
0.00521589
0.00521589
0.00517115
0.00517115
0.00513222
0.00513222
0.00509796
0.00509796
0.00506749
0.00506749
0.00504015
0.00504015
0.00501543
0.00501543
0.00499297
0.00499297
0.00497244
0.00497244
0.0049536
0.0049536
0.00493624
0.00493624
0.00492018
0.00492018
0.00490527
0.00490527
0.00489139
0.00489139
0.00487844
0.00487844
0.00486631
0.00486631
0.00485493
0.00485493
0.00484422
0.00484422
0.00483413
0.00483413
0.0048246
0.0048246
0.00481557
0.00481557
0.00480702
0.00480702
0.00479888
0.00479888
0.00479114
0.00479114
0.00478375
0.00478375
0.00477669
0.00477669
0.00476993
0.00476993
0.00476346
0.00476346
0.00475724
0.00475724
0.00475126
0.00475126
0.00474549
0.00474549
0.00473993
0.00473993
0.00473455
0.00473455
0.00472935
0.00472935
0.0047243
0.0047243
0.0047194
0.0047194
0.00471463
0.00471463
0.00470999
0.00470999
0.00470547
0.00470547
0.00470104
0.00470104
0.00469672
0.00469672
0.00469247
0.00469247
0.00468832
0.00468832
0.00468421
0.00468421
0.0046802
0.0046802
0.00467621
0.00467621
0.00467232
0.00467232
0.00466839
0.00466839
0.00466462
0.00466462
0.00466071
0.00466071
0.00465704
0.00465704
0.0070499
0.0070499
0.00640157
0.00640157
0.0060309
0.0060309
0.00579118
0.00579118
0.00562386
0.00562386
0.00550069
0.00550069
0.00540577
0.00540577
0.00533013
0.00533013
0.0052681
0.0052681
0.00521594
0.00521594
0.0051712
0.0051712
0.00513228
0.00513228
0.00509802
0.00509802
0.00506756
0.00506756
0.00504022
0.00504022
0.00501551
0.00501551
0.00499304
0.00499304
0.00497252
0.00497252
0.00495369
0.00495369
0.00493633
0.00493633
0.00492027
0.00492027
0.00490537
0.00490537
0.00489149