# Residuals  
# Time       	p_rgh        	Ux           	Uy           	Uz           	SF6          
0.1          	9.793060e-01	1.244630e-04	1.596590e-01	9.986910e-01	1.000000e+00
0.2          	3.494150e-01	3.135730e-05	1.145150e-01	4.778360e-02	4.885170e-02
0.3          	1.387900e-01	2.121200e-05	2.736840e-02	7.035180e-02	2.911630e-02
0.4          	1.141800e-01	1.904280e-05	1.695560e-02	7.612850e-03	2.426570e-02
0.5          	9.819940e-02	1.764990e-05	1.199690e-02	6.998560e-03	2.022740e-02
0.6          	8.928490e-02	1.679570e-05	9.661770e-03	6.894030e-03	1.712730e-02
0.7          	8.140810e-02	1.630910e-05	8.428850e-03	6.873870e-03	1.457170e-02
0.8          	7.418750e-02	1.609310e-05	7.606720e-03	6.849650e-03	1.256790e-02
0.9          	6.793290e-02	1.595800e-05	6.988100e-03	6.847510e-03	1.107980e-02
1            	6.244290e-02	1.594010e-05	6.546080e-03	6.811330e-03	9.900760e-03
1.1          	5.860380e-02	1.599750e-05	6.175490e-03	6.830810e-03	9.027440e-03
1.2          	5.606380e-02	1.615610e-05	5.896650e-03	6.826310e-03	8.341250e-03
1.3          	5.434550e-02	1.637530e-05	5.618350e-03	6.851380e-03	7.766750e-03
1.4          	5.308220e-02	1.663200e-05	5.350940e-03	6.855520e-03	7.243970e-03
1.5          	5.210640e-02	1.688920e-05	5.098580e-03	6.880340e-03	6.819300e-03
1.6          	5.137000e-02	1.689030e-05	4.855560e-03	6.979080e-03	6.302780e-03
1.7          	5.076720e-02	1.714810e-05	4.647420e-03	6.946990e-03	5.956990e-03
1.8          	5.012800e-02	1.738230e-05	4.469350e-03	6.858030e-03	5.668390e-03
1.9          	4.976170e-02	1.759890e-05	4.277440e-03	6.771200e-03	5.371740e-03
2            	4.927970e-02	1.779590e-05	4.123770e-03	6.664840e-03	5.131060e-03
2.1          	4.912780e-02	1.789820e-05	3.938430e-03	6.566010e-03	4.898240e-03
2.2          	4.886030e-02	1.796530e-05	3.801410e-03	6.444380e-03	4.715350e-03
2.3          	4.870960e-02	1.795220e-05	3.680270e-03	6.322010e-03	4.580900e-03
2.4          	4.867260e-02	1.787950e-05	3.512600e-03	6.227710e-03	4.342080e-03
2.5          	4.837890e-02	1.781030e-05	3.379610e-03	6.088710e-03	4.259010e-03
2.6          	4.825580e-02	1.769170e-05	3.240460e-03	5.944400e-03	4.112060e-03
2.7          	4.811520e-02	1.759030e-05	3.112940e-03	5.769730e-03	3.974480e-03
2.8          	4.807380e-02	1.751030e-05	2.987310e-03	5.623080e-03	3.836820e-03
2.9          	4.802070e-02	1.746170e-05	2.859510e-03	5.475020e-03	3.633540e-03
3            	4.804730e-02	1.761700e-05	2.755110e-03	5.400610e-03	3.495120e-03
3.1          	4.784560e-02	1.765660e-05	2.621170e-03	5.156500e-03	3.436020e-03
3.2          	4.767950e-02	1.785930e-05	2.517150e-03	4.978360e-03	3.316170e-03
3.3          	4.761700e-02	1.803150e-05	2.385980e-03	4.831510e-03	3.204730e-03
3.4          	4.741130e-02	1.812340e-05	2.287740e-03	4.702610e-03	3.078250e-03
3.5          	4.728880e-02	1.806480e-05	2.146360e-03	4.507030e-03	2.895190e-03
3.6          	4.722380e-02	1.801420e-05	2.039490e-03	4.406120e-03	2.780300e-03
3.7          	4.696780e-02	1.786860e-05	1.942610e-03	4.252470e-03	2.681980e-03
3.8          	4.694700e-02	1.759960e-05	1.813850e-03	4.194410e-03	2.522960e-03
3.9          	4.671330e-02	1.720660e-05	1.712470e-03	3.888170e-03	2.392730e-03
4            	4.649660e-02	1.680520e-05	1.597350e-03	3.787560e-03	2.249870e-03
4.1          	4.627260e-02	1.622280e-05	1.493060e-03	3.475460e-03	2.122230e-03
4.2          	4.594960e-02	1.561170e-05	1.399600e-03	3.304860e-03	2.036330e-03
4.3          	4.569510e-02	1.495260e-05	1.298430e-03	3.117540e-03	1.916860e-03
4.4          	4.547810e-02	1.429080e-05	1.198950e-03	2.967100e-03	1.734790e-03
4.5          	4.524440e-02	1.334950e-05	1.075340e-03	2.612930e-03	1.598780e-03
4.6          	4.488320e-02	1.270040e-05	1.009010e-03	2.534040e-03	1.480530e-03
4.7          	4.477830e-02	1.196920e-05	9.130820e-04	2.383560e-03	1.367170e-03
4.8          	4.444790e-02	1.130340e-05	8.520370e-04	2.252110e-03	1.286170e-03
4.9          	4.425170e-02	1.051130e-05	7.684120e-04	2.126940e-03	1.147970e-03
5            	4.408710e-02	9.600200e-06	6.678390e-04	1.784590e-03	1.054920e-03
5.1          	4.385860e-02	9.236550e-06	6.512700e-04	1.857310e-03	9.930900e-04
5.2          	4.368460e-02	8.504610e-06	5.719690e-04	1.649120e-03	9.158130e-04
5.3          	4.351940e-02	7.832890e-06	5.138630e-04	1.560170e-03	8.471430e-04
5.4          	4.338000e-02	7.277650e-06	4.650360e-04	1.443860e-03	7.788450e-04
5.5          	4.325250e-02	6.621570e-06	4.223250e-04	1.292740e-03	7.136650e-04
5.6          	4.320560e-02	6.314720e-06	4.012560e-04	1.309690e-03	6.611810e-04
5.7          	4.307440e-02	5.875820e-06	3.665730e-04	1.217880e-03	6.139970e-04
5.8          	4.292570e-02	5.442020e-06	3.328970e-04	1.103880e-03	5.716590e-04
5.9          	4.284220e-02	5.093160e-06	3.050200e-04	1.054820e-03	5.362360e-04
6            	4.285660e-02	4.912190e-06	3.148800e-04	1.150530e-03	5.033340e-04
6.1          	4.277120e-02	4.346520e-06	2.790760e-04	9.014200e-04	4.817050e-04
6.2          	4.273240e-02	4.028930e-06	2.551400e-04	8.629500e-04	3.816790e-04
6.3          	4.296100e-02	4.099250e-06	2.803350e-04	1.159150e-03	4.149310e-04
6.4          	4.296260e-02	3.918460e-06	2.734980e-04	1.167870e-03	4.165670e-04
6.5          	4.294290e-02	3.650310e-06	2.508250e-04	1.112710e-03	4.046770e-04
6.6          	4.291770e-02	3.420460e-06	2.365970e-04	1.033010e-03	4.016590e-04
6.7          	4.284650e-02	3.196300e-06	2.201680e-04	9.543270e-04	3.912700e-04
6.8          	4.262650e-02	2.995440e-06	1.793020e-04	6.685950e-04	3.100300e-04
6.9          	4.258290e-02	2.887230e-06	1.932040e-04	7.253510e-04	3.351650e-04
7            	4.256730e-02	2.766200e-06	1.841710e-04	6.713720e-04	3.445160e-04
7.1          	4.255960e-02	2.493170e-06	1.576700e-04	5.893600e-04	2.826730e-04
7.2          	4.268760e-02	2.762010e-06	1.888900e-04	8.105780e-04	3.342220e-04
7.3          	4.272480e-02	2.778100e-06	1.990930e-04	8.509850e-04	3.526370e-04
7.4          	4.272420e-02	2.672880e-06	1.937850e-04	8.252880e-04	3.543010e-04
7.5          	4.270700e-02	2.659050e-06	1.963760e-04	8.220470e-04	3.593130e-04
7.6          	4.268460e-02	2.584100e-06	1.940620e-04	7.913200e-04	3.612100e-04
7.7          	4.266000e-02	2.535630e-06	1.918140e-04	7.823030e-04	3.563210e-04
7.8          	4.265180e-02	2.526180e-06	1.939760e-04	7.832830e-04	3.586160e-04
7.9          	4.263120e-02	2.500380e-06	1.931120e-04	7.783540e-04	3.565140e-04
8            	4.262940e-02	2.484240e-06	1.943940e-04	7.849440e-04	3.582320e-04
8.1          	4.262360e-02	2.422970e-06	1.901030e-04	7.784730e-04	3.548300e-04
8.2          	4.261660e-02	2.424700e-06	1.917040e-04	7.841700e-04	3.555680e-04
8.3          	4.260030e-02	2.407920e-06	1.910180e-04	7.838020e-04	3.547740e-04
8.4          	4.260480e-02	2.386790e-06	1.913120e-04	7.878210e-04	3.552520e-04
8.5          	4.259590e-02	2.373370e-06	1.902730e-04	8.004430e-04	3.542150e-04
8.6          	4.260110e-02	2.357410e-06	1.907390e-04	8.061900e-04	3.547780e-04
8.7          	4.259330e-02	2.343250e-06	1.898810e-04	8.080370e-04	3.540770e-04
8.8          	4.258960e-02	2.329680e-06	1.904240e-04	8.124920e-04	3.545730e-04
8.9          	4.257610e-02	2.314580e-06	1.895290e-04	8.133230e-04	3.535590e-04
9            	4.258350e-02	2.306330e-06	1.902850e-04	8.177780e-04	3.545480e-04
9.1          	4.257130e-02	2.290800e-06	1.892770e-04	8.169760e-04	3.534770e-04
9.2          	4.257310e-02	2.281910e-06	1.878400e-04	8.204050e-04	3.544370e-04
9.3          	4.256820e-02	2.269910e-06	1.890360e-04	8.199600e-04	3.534990e-04
9.4          	4.256410e-02	2.261090e-06	1.878090e-04	8.229870e-04	3.543190e-04
9.5          	4.259660e-02	2.064750e-06	1.566560e-04	6.978140e-04	2.816980e-04
9.6          	4.253940e-02	2.366260e-06	1.684960e-04	7.989760e-04	3.097950e-04
9.7          	4.257810e-02	2.423480e-06	1.696200e-04	8.017260e-04	3.271650e-04
9.8          	4.258350e-02	2.405010e-06	1.681080e-04	7.912880e-04	3.302410e-04
9.9          	4.258020e-02	2.405700e-06	1.681860e-04	7.964310e-04	3.351150e-04
10           	4.258060e-02	2.386520e-06	1.682080e-04	7.975190e-04	3.354400e-04
10.1         	4.256650e-02	2.367350e-06	1.672240e-04	7.924150e-04	3.365860e-04
10.2         	4.257950e-02	2.352220e-06	1.673750e-04	7.927630e-04	3.365950e-04
10.3         	4.256420e-02	2.340230e-06	1.669880e-04	7.918690e-04	3.374170e-04
10.4         	4.257430e-02	2.325510e-06	1.672770e-04	7.923510e-04	3.368190e-04
10.5         	4.256380e-02	2.316680e-06	1.670510e-04	7.923320e-04	3.377400e-04
10.6         	4.256690e-02	2.299280e-06	1.674450e-04	7.911270e-04	3.368550e-04
10.7         	4.255260e-02	2.290290e-06	1.673180e-04	7.919130e-04	3.375480e-04
10.8         	4.256420e-02	2.275550e-06	1.674800e-04	7.904990e-04	3.368440e-04
10.9         	4.254750e-02	2.266220e-06	1.672560e-04	7.905440e-04	3.376630e-04
11           	4.255840e-02	2.250590e-06	1.673850e-04	7.891570e-04	3.367310e-04
11.1         	4.254870e-02	2.243360e-06	1.671660e-04	7.894250e-04	3.376830e-04
11.2         	4.255110e-02	2.228410e-06	1.673150e-04	7.884780e-04	3.367960e-04
11.3         	4.253550e-02	2.218790e-06	1.669910e-04	7.878660e-04	3.372010e-04
11.4         	4.254850e-02	2.206020e-06	1.671060e-04	7.866640e-04	3.366080e-04
11.5         	4.248280e-02	2.069780e-06	1.657300e-04	7.565700e-04	3.374860e-04
11.6         	4.250490e-02	2.055630e-06	1.676660e-04	7.416250e-04	3.364710e-04
11.7         	4.248460e-02	2.058520e-06	1.660200e-04	7.564510e-04	3.374290e-04
11.8         	4.249990e-02	2.043570e-06	1.675680e-04	7.414680e-04	3.364760e-04
11.9         	4.247560e-02	2.044710e-06	1.659370e-04	7.562890e-04	3.370400e-04
12           	4.249900e-02	2.031710e-06	1.674680e-04	7.411390e-04	3.364460e-04
12.1         	4.247330e-02	2.034090e-06	1.658820e-04	7.561980e-04	3.373700e-04
12.2         	4.249600e-02	2.019540e-06	1.673550e-04	7.405450e-04	3.363130e-04
12.3         	4.247750e-02	2.023860e-06	1.657910e-04	7.560030e-04	3.373200e-04
12.4         	4.249170e-02	2.009980e-06	1.673750e-04	7.411420e-04	3.364850e-04
12.5         	4.246750e-02	2.011790e-06	1.657730e-04	7.559690e-04	3.369990e-04
12.6         	4.249190e-02	1.999050e-06	1.673130e-04	7.406840e-04	3.364000e-04
12.7         	4.246790e-02	2.001960e-06	1.657240e-04	7.556650e-04	3.371570e-04
12.8         	4.248950e-02	1.989040e-06	1.672920e-04	7.406490e-04	3.363340e-04
12.9         	4.247050e-02	1.993020e-06	1.657230e-04	7.557960e-04	3.371480e-04
13           	4.248600e-02	1.977210e-06	1.672990e-04	7.404940e-04	3.362910e-04
13.1         	4.246280e-02	1.980100e-06	1.657540e-04	7.560620e-04	3.368110e-04
13.2         	4.248590e-02	1.965170e-06	1.672810e-04	7.403190e-04	3.361010e-04
13.3         	4.246120e-02	1.968480e-06	1.657170e-04	7.556320e-04	3.369340e-04
13.4         	4.248390e-02	1.953250e-06	1.672930e-04	7.403420e-04	3.360620e-04
13.5         	4.246560e-02	1.956160e-06	1.657320e-04	7.560040e-04	3.368480e-04
13.6         	4.248020e-02	1.940390e-06	1.672980e-04	7.404870e-04	3.359290e-04
13.7         	4.245580e-02	1.941710e-06	1.657630e-04	7.562290e-04	3.364930e-04
13.8         	4.248080e-02	1.926830e-06	1.673020e-04	7.403800e-04	3.358000e-04
13.9         	4.245640e-02	1.929110e-06	1.657400e-04	7.561130e-04	3.365890e-04
14           	4.247870e-02	1.914310e-06	1.673050e-04	7.405520e-04	3.357090e-04
14.1         	4.245930e-02	1.917760e-06	1.657370e-04	7.562590e-04	3.365780e-04
14.2         	4.247540e-02	1.902700e-06	1.673340e-04	7.407100e-04	3.357150e-04
14.3         	4.245210e-02	1.905340e-06	1.657970e-04	7.568160e-04	3.362590e-04
14.4         	4.247610e-02	1.890960e-06	1.673470e-04	7.406820e-04	3.355610e-04
14.5         	4.245090e-02	1.894320e-06	1.658000e-04	7.566150e-04	3.364410e-04
14.6         	4.247460e-02	1.880020e-06	1.673980e-04	7.408670e-04	3.356120e-04
14.7         	4.245620e-02	1.884810e-06	1.658390e-04	7.569000e-04	3.364510e-04
14.8         	4.246130e-02	1.870590e-06	1.659720e-04	7.559490e-04	3.355870e-04
14.9         	4.245450e-02	1.870220e-06	1.669820e-04	7.434560e-04	3.362080e-04
15           	4.246370e-02	1.864480e-06	1.660990e-04	7.558380e-04	3.355430e-04
15.1         	4.245610e-02	1.861630e-06	1.670300e-04	7.432020e-04	3.363880e-04
15.2         	4.246240e-02	1.855680e-06	1.661340e-04	7.559520e-04	3.355480e-04
15.3         	4.245970e-02	1.853670e-06	1.670450e-04	7.432500e-04	3.364330e-04
15.4         	4.245980e-02	1.847550e-06	1.661530e-04	7.560100e-04	3.356070e-04
15.5         	4.245330e-02	1.844460e-06	1.671020e-04	7.434670e-04	3.361780e-04
15.6         	4.246120e-02	1.838990e-06	1.661610e-04	7.557970e-04	3.354980e-04
15.7         	4.245260e-02	1.836330e-06	1.670690e-04	7.428900e-04	3.363970e-04
15.8         	4.246030e-02	1.831150e-06	1.661820e-04	7.557850e-04	3.355690e-04
15.9         	4.245860e-02	1.830000e-06	1.670970e-04	7.430830e-04	3.364150e-04
16           	4.245760e-02	1.824500e-06	1.661890e-04	7.558240e-04	3.355580e-04
16.1         	4.245030e-02	1.821850e-06	1.671240e-04	7.430560e-04	3.361720e-04
16.2         	4.245950e-02	1.817200e-06	1.662030e-04	7.556010e-04	3.355290e-04
16.3         	4.245210e-02	1.815160e-06	1.671130e-04	7.427260e-04	3.363600e-04
16.4         	4.245860e-02	1.810910e-06	1.662120e-04	7.556350e-04	3.355220e-04
16.5         	4.245610e-02	1.809800e-06	1.671080e-04	7.426660e-04	3.364240e-04
16.6         	4.245640e-02	1.805270e-06	1.662170e-04	7.556900e-04	3.355910e-04
16.7         	4.245020e-02	1.803070e-06	1.671650e-04	7.429190e-04	3.361580e-04
16.8         	4.245800e-02	1.799210e-06	1.662120e-04	7.555450e-04	3.354780e-04
16.9         	4.244990e-02	1.797430e-06	1.671420e-04	7.425540e-04	3.363750e-04
17           	4.245750e-02	1.793630e-06	1.662320e-04	7.556150e-04	3.355550e-04
17.1         	4.245620e-02	1.793040e-06	1.671420e-04	7.426520e-04	3.364030e-04
17.2         	4.245520e-02	1.789130e-06	1.662290e-04	7.556610e-04	3.355410e-04
17.3         	4.244830e-02	1.787080e-06	1.671660e-04	7.427060e-04	3.361700e-04
17.4         	4.245740e-02	1.783780e-06	1.662310e-04	7.555300e-04	3.355070e-04
17.5         	4.245030e-02	1.782390e-06	1.671590e-04	7.425240e-04	3.363540e-04
17.6         	4.245670e-02	1.779270e-06	1.662380e-04	7.555790e-04	3.355120e-04
17.7         	4.245460e-02	1.778730e-06	1.671520e-04	7.425350e-04	3.364020e-04
17.8         	4.245480e-02	1.775240e-06	1.662540e-04	7.556760e-04	3.355770e-04
17.9         	4.244890e-02	1.773610e-06	1.671960e-04	7.427780e-04	3.361490e-04
18           	4.245670e-02	1.770590e-06	1.662470e-04	7.555120e-04	3.354670e-04
18.1         	4.244880e-02	1.769230e-06	1.671590e-04	7.423720e-04	3.363690e-04
18.2         	4.245640e-02	1.766370e-06	1.662580e-04	7.555870e-04	3.355410e-04
18.3         	4.245540e-02	1.766230e-06	1.671790e-04	7.425950e-04	3.363910e-04
18.4         	4.245420e-02	1.762940e-06	1.662640e-04	7.556480e-04	3.355370e-04
18.5         	4.244750e-02	1.761480e-06	1.672060e-04	7.427650e-04	3.361510e-04
18.6         	4.245650e-02	1.758780e-06	1.662740e-04	7.556310e-04	3.355040e-04
18.7         	4.244970e-02	1.757750e-06	1.671890e-04	7.425840e-04	3.363510e-04
18.8         	4.245600e-02	1.755120e-06	1.662660e-04	7.556980e-04	3.355010e-04
18.9         	4.245420e-02	1.754880e-06	1.671820e-04	7.425330e-04	3.364040e-04
19           	4.245430e-02	1.752070e-06	1.662790e-04	7.558170e-04	3.355690e-04
19.1         	4.244850e-02	1.750690e-06	1.672330e-04	7.429030e-04	3.361400e-04
19.2         	4.245630e-02	1.748140e-06	1.662800e-04	7.556570e-04	3.354660e-04
19.3         	4.244850e-02	1.747090e-06	1.672030e-04	7.425130e-04	3.363560e-04
19.4         	4.245600e-02	1.744600e-06	1.662870e-04	7.557500e-04	3.355420e-04
19.5         	4.245510e-02	1.744700e-06	1.672200e-04	7.427160e-04	3.363900e-04
19.6         	4.245400e-02	1.741910e-06	1.662920e-04	7.558140e-04	3.355300e-04
19.7         	4.244740e-02	1.740470e-06	1.672370e-04	7.427090e-04	3.361560e-04
19.8         	4.245640e-02	1.738240e-06	1.662920e-04	7.556950e-04	3.354970e-04
19.9         	4.244960e-02	1.737490e-06	1.672200e-04	7.426120e-04	3.363440e-04
20           	4.245590e-02	1.735300e-06	1.662870e-04	7.558310e-04	3.355030e-04
20.1         	4.245410e-02	1.735210e-06	1.672130e-04	7.426530e-04	3.363920e-04
20.2         	4.245410e-02	1.732760e-06	1.663040e-04	7.560020e-04	3.355700e-04
20.3         	4.244850e-02	1.731620e-06	1.672660e-04	7.430000e-04	3.361410e-04
20.4         	4.245620e-02	1.729390e-06	1.662980e-04	7.558010e-04	3.354600e-04
20.5         	4.244860e-02	1.728490e-06	1.672140e-04	7.425230e-04	3.363620e-04
20.6         	4.245600e-02	1.726520e-06	1.663030e-04	7.559220e-04	3.355350e-04
20.7         	4.245520e-02	1.726780e-06	1.672370e-04	7.427830e-04	3.363850e-04
20.8         	4.245400e-02	1.724390e-06	1.662950e-04	7.560230e-04	3.355320e-04
20.9         	4.244760e-02	1.723240e-06	1.672550e-04	7.428910e-04	3.361440e-04
21           	4.245640e-02	1.721370e-06	1.663060e-04	7.559420e-04	3.354990e-04
21.1         	4.244980e-02	1.720600e-06	1.672380e-04	7.427300e-04	3.363460e-04
21.2         	4.245600e-02	1.718850e-06	1.663050e-04	7.560090e-04	3.354950e-04
21.3         	4.245440e-02	1.718820e-06	1.672190e-04	7.426110e-04	3.364000e-04
21.4         	4.245430e-02	1.716830e-06	1.663150e-04	7.561070e-04	3.355630e-04
21.5         	4.244880e-02	1.715780e-06	1.672730e-04	7.430210e-04	3.361360e-04
21.6         	4.245630e-02	1.714030e-06	1.663080e-04	7.559910e-04	3.354610e-04
21.7         	4.244890e-02	1.713310e-06	1.672420e-04	7.426830e-04	3.363500e-04
21.8         	4.245620e-02	1.711600e-06	1.663230e-04	7.561050e-04	3.355380e-04
21.9         	4.245560e-02	1.711950e-06	1.672480e-04	7.428310e-04	3.363860e-04
22           	4.245420e-02	1.709930e-06	1.663130e-04	7.561370e-04	3.355250e-04
22.1         	4.243840e-02	1.708020e-06	1.660140e-04	7.574420e-04	3.361480e-04
22.2         	4.246460e-02	1.702860e-06	1.674110e-04	7.418320e-04	3.355020e-04
22.3         	4.244170e-02	1.709950e-06	1.660990e-04	7.571220e-04	3.363310e-04
22.4         	4.246460e-02	1.701470e-06	1.674450e-04	7.417560e-04	3.354930e-04
22.5         	4.244630e-02	1.709070e-06	1.661000e-04	7.572360e-04	3.363930e-04
22.6         	4.245340e-02	1.699230e-06	1.662330e-04	7.563410e-04	3.355670e-04
22.7         	4.244890e-02	1.702200e-06	1.672510e-04	7.432160e-04	3.361300e-04
22.8         	4.245660e-02	1.701150e-06	1.663100e-04	7.560700e-04	3.354550e-04
22.9         	4.243970e-02	1.699740e-06	1.659940e-04	7.571960e-04	3.363610e-04
23           	4.246460e-02	1.694750e-06	1.674200e-04	7.418370e-04	3.355380e-04
23.1         	4.244750e-02	1.703210e-06	1.660990e-04	7.573530e-04	3.363840e-04
23.2         	4.245330e-02	1.693650e-06	1.662180e-04	7.564550e-04	3.355230e-04
23.3         	4.244810e-02	1.696660e-06	1.672480e-04	7.432540e-04	3.361470e-04
23.4         	4.245700e-02	1.695580e-06	1.663200e-04	7.561300e-04	3.354960e-04
23.5         	4.244100e-02	1.694520e-06	1.660170e-04	7.574200e-04	3.363430e-04
23.6         	4.246470e-02	1.689640e-06	1.674210e-04	7.419430e-04	3.354940e-04
23.7         	4.244660e-02	1.697840e-06	1.660910e-04	7.572770e-04	3.363990e-04
23.8         	4.245370e-02	1.688480e-06	1.662240e-04	7.565050e-04	3.355630e-04
23.9         	4.244940e-02	1.691560e-06	1.672610e-04	7.433260e-04	3.361350e-04
24           	4.245700e-02	1.690690e-06	1.663150e-04	7.561750e-04	3.354580e-04
24.1         	4.244010e-02	1.689710e-06	1.660110e-04	7.574340e-04	3.363480e-04
24.2         	4.246510e-02	1.684680e-06	1.674410e-04	7.419980e-04	3.355400e-04
24.3         	4.244790e-02	1.693310e-06	1.661080e-04	7.574720e-04	3.363740e-04
24.4         	4.245370e-02	1.683860e-06	1.662260e-04	7.565480e-04	3.355240e-04
24.5         	4.244860e-02	1.686850e-06	1.672490e-04	7.432240e-04	3.361530e-04
24.6         	4.245730e-02	1.686220e-06	1.663240e-04	7.563500e-04	3.354990e-04
24.7         	4.244140e-02	1.685370e-06	1.660150e-04	7.576370e-04	3.363400e-04
24.8         	4.246520e-02	1.680440e-06	1.674350e-04	7.420200e-04	3.354930e-04
24.9         	4.244710e-02	1.689000e-06	1.661100e-04	7.574880e-04	3.363910e-04
25           	4.245410e-02	1.679630e-06	1.662370e-04	7.566270e-04	3.355650e-04
25.1         	4.244990e-02	1.682760e-06	1.672630e-04	7.433560e-04	3.361370e-04
25.2         	4.245740e-02	1.682180e-06	1.663220e-04	7.563300e-04	3.354560e-04
25.3         	4.244050e-02	1.681130e-06	1.659980e-04	7.574600e-04	3.363570e-04
25.4         	4.246560e-02	1.676360e-06	1.674380e-04	7.420530e-04	3.355310e-04
25.5         	4.244830e-02	1.685090e-06	1.661080e-04	7.575240e-04	3.363800e-04
25.6         	4.245410e-02	1.675870e-06	1.662320e-04	7.566890e-04	3.355280e-04
25.7         	4.244910e-02	1.678950e-06	1.672590e-04	7.433610e-04	3.361400e-04
25.8         	4.245780e-02	1.678410e-06	1.663290e-04	7.563950e-04	3.354960e-04
25.9         	4.244180e-02	1.677610e-06	1.660220e-04	7.576890e-04	3.363410e-04
26           	4.246570e-02	1.672850e-06	1.674380e-04	7.420790e-04	3.354920e-04
26.1         	4.244750e-02	1.681450e-06	1.660950e-04	7.574250e-04	3.363960e-04
26.2         	4.245450e-02	1.672290e-06	1.662350e-04	7.567000e-04	3.355570e-04
26.3         	4.245040e-02	1.675610e-06	1.672690e-04	7.434660e-04	3.361330e-04
26.4         	4.245780e-02	1.675130e-06	1.663230e-04	7.564590e-04	3.354600e-04
26.5         	4.244090e-02	1.674310e-06	1.660100e-04	7.576600e-04	3.363480e-04
26.6         	4.246600e-02	1.669520e-06	1.674480e-04	7.421570e-04	3.355340e-04
26.7         	4.244870e-02	1.678380e-06	1.661080e-04	7.576840e-04	3.363830e-04
26.8         	4.245450e-02	1.669200e-06	1.662290e-04	7.567800e-04	3.355240e-04
26.9         	4.244960e-02	1.672300e-06	1.672470e-04	7.432980e-04	3.361450e-04
27           	4.245820e-02	1.672010e-06	1.663220e-04	7.564640e-04	3.355000e-04
27.1         	4.244220e-02	1.671300e-06	1.660120e-04	7.577830e-04	3.363300e-04
27.2         	4.246610e-02	1.666570e-06	1.674400e-04	7.421500e-04	3.354900e-04
27.3         	4.244790e-02	1.675460e-06	1.661020e-04	7.576660e-04	3.363910e-04
27.4         	4.245490e-02	1.666340e-06	1.662370e-04	7.568350e-04	3.355650e-04
27.5         	4.245090e-02	1.669560e-06	1.672620e-04	7.434740e-04	3.361280e-04
27.6         	4.245810e-02	1.669330e-06	1.663240e-04	7.565840e-04	3.354540e-04
27.7         	4.244130e-02	1.668440e-06	1.659930e-04	7.576480e-04	3.363580e-04
27.8         	4.246650e-02	1.663760e-06	1.674420e-04	7.421430e-04	3.355340e-04
27.9         	4.244910e-02	1.672870e-06	1.661010e-04	7.577940e-04	3.363750e-04
28           	4.245490e-02	1.663730e-06	1.662220e-04	7.568800e-04	3.355230e-04
28.1         	4.245000e-02	1.667090e-06	1.672620e-04	7.435080e-04	3.361450e-04
28.2         	4.245850e-02	1.666760e-06	1.663210e-04	7.565950e-04	3.354950e-04
28.3         	4.244260e-02	1.666130e-06	1.660150e-04	7.578610e-04	3.363350e-04
28.4         	4.246650e-02	1.661630e-06	1.674420e-04	7.423130e-04	3.354910e-04
28.5         	4.244830e-02	1.670270e-06	1.660960e-04	7.576210e-04	3.363960e-04
28.6         	4.245520e-02	1.661310e-06	1.662320e-04	7.568890e-04	3.355610e-04
28.7         	4.245130e-02	1.664810e-06	1.672630e-04	7.435850e-04	3.361340e-04
28.8         	4.245850e-02	1.664490e-06	1.663180e-04	7.565880e-04	3.354550e-04
28.9         	4.244170e-02	1.663970e-06	1.660060e-04	7.578540e-04	3.363460e-04
29           	4.246690e-02	1.659130e-06	1.674500e-04	7.422170e-04	3.355370e-04
29.1         	4.244950e-02	1.668340e-06	1.661000e-04	7.578300e-04	3.363720e-04
29.2         	4.245520e-02	1.659240e-06	1.662300e-04	7.569060e-04	3.355220e-04
29.3         	4.245040e-02	1.662590e-06	1.672510e-04	7.434710e-04	3.361520e-04
29.4         	4.245890e-02	1.662440e-06	1.663220e-04	7.566500e-04	3.354970e-04
29.5         	4.244290e-02	1.661860e-06	1.660140e-04	7.579360e-04	3.363390e-04
29.6         	4.246690e-02	1.657250e-06	1.674500e-04	7.422480e-04	3.354910e-04
29.7         	4.244860e-02	1.666320e-06	1.660920e-04	7.577840e-04	3.363900e-04
29.8         	4.245550e-02	1.657360e-06	1.662320e-04	7.570200e-04	3.355630e-04
29.9         	4.245170e-02	1.660770e-06	1.672690e-04	7.436310e-04	3.361360e-04
30           	4.245870e-02	1.660600e-06	1.663150e-04	7.567250e-04	3.354530e-04
30.1         	4.244200e-02	1.659860e-06	1.659930e-04	7.577910e-04	3.363570e-04
30.2         	4.246720e-02	1.655280e-06	1.674480e-04	7.422690e-04	3.355280e-04
30.3         	4.244980e-02	1.664600e-06	1.661010e-04	7.579140e-04	3.363800e-04
30.4         	4.245540e-02	1.655410e-06	1.662240e-04	7.569640e-04	3.355260e-04
30.5         	4.245080e-02	1.658910e-06	1.672510e-04	7.435410e-04	3.361400e-04
30.6         	4.245910e-02	1.658760e-06	1.663240e-04	7.567160e-04	3.354940e-04
30.7         	4.244330e-02	1.658340e-06	1.660070e-04	7.580380e-04	3.363410e-04
30.8         	4.246720e-02	1.653680e-06	1.674410e-04	7.422910e-04	3.354910e-04
30.9         	4.244900e-02	1.662710e-06	1.660800e-04	7.577880e-04	3.363950e-04
31           	4.245580e-02	1.653870e-06	1.662330e-04	7.570690e-04	3.355580e-04
31.1         	4.245210e-02	1.657410e-06	1.672680e-04	7.436620e-04	3.361330e-04
31.2         	4.245900e-02	1.657260e-06	1.663200e-04	7.567950e-04	3.354550e-04
31.3         	4.244230e-02	1.656750e-06	1.660030e-04	7.579420e-04	3.363460e-04
31.4         	4.246750e-02	1.652070e-06	1.674530e-04	7.423200e-04	3.355360e-04
31.5         	4.245010e-02	1.661400e-06	1.661020e-04	7.579520e-04	3.363710e-04
31.6         	4.245570e-02	1.652440e-06	1.662360e-04	7.571010e-04	3.355200e-04
31.7         	4.245120e-02	1.655810e-06	1.672500e-04	7.435220e-04	3.361520e-04
31.8         	4.245940e-02	1.655780e-06	1.663230e-04	7.567770e-04	3.354960e-04
31.9         	4.244350e-02	1.655350e-06	1.660110e-04	7.580420e-04	3.363380e-04
32           	4.246750e-02	1.650690e-06	1.674420e-04	7.422870e-04	3.354900e-04
32.1         	4.244930e-02	1.660040e-06	1.660920e-04	7.579460e-04	3.363890e-04
32.2         	4.245600e-02	1.651000e-06	1.662360e-04	7.570530e-04	3.355620e-04
32.3         	4.245240e-02	1.654560e-06	1.672590e-04	7.436990e-04	3.361350e-04
32.4         	4.245930e-02	1.654520e-06	1.663100e-04	7.568000e-04	3.354530e-04
32.5         	4.244260e-02	1.653980e-06	1.659920e-04	7.579040e-04	3.363560e-04
32.6         	4.246780e-02	1.649370e-06	1.674490e-04	7.423370e-04	3.355280e-04
32.7         	4.245040e-02	1.658780e-06	1.660920e-04	7.579930e-04	3.363790e-04
32.8         	4.245590e-02	1.649860e-06	1.662230e-04	7.571750e-04	3.355250e-04
32.9         	4.245140e-02	1.653290e-06	1.672480e-04	7.436300e-04	3.361400e-04
33           	4.245960e-02	1.653330e-06	1.663170e-04	7.568680e-04	3.354930e-04
33.1         	4.244380e-02	1.652920e-06	1.659990e-04	7.580840e-04	3.363400e-04
33.2         	4.246780e-02	1.648470e-06	1.674320e-04	7.424080e-04	3.354900e-04
33.3         	4.244950e-02	1.657530e-06	1.660760e-04	7.578870e-04	3.363950e-04
33.4         	4.245630e-02	1.648720e-06	1.662300e-04	7.571620e-04	3.355570e-04
33.5         	4.245270e-02	1.652300e-06	1.672620e-04	7.436950e-04	3.361320e-04
33.6         	4.245950e-02	1.652310e-06	1.663140e-04	7.568540e-04	3.354570e-04
33.7         	4.244280e-02	1.651890e-06	1.659970e-04	7.580710e-04	3.363460e-04
33.8         	4.246800e-02	1.647240e-06	1.674460e-04	7.423910e-04	3.355310e-04
33.9         	4.245060e-02	1.656720e-06	1.660930e-04	7.580780e-04	3.363810e-04
34           	4.245620e-02	1.647670e-06	1.662250e-04	7.571370e-04	3.355210e-04
34.1         	4.245170e-02	1.651130e-06	1.672440e-04	7.435490e-04	3.361490e-04
34.2         	4.245980e-02	1.651270e-06	1.663160e-04	7.568990e-04	3.354890e-04
34.3         	4.244400e-02	1.650880e-06	1.660010e-04	7.581750e-04	3.363370e-04
34.4         	4.246800e-02	1.646360e-06	1.674450e-04	7.423990e-04	3.354910e-04
34.5         	4.244970e-02	1.655640e-06	1.660870e-04	7.579720e-04	3.363840e-04
34.6         	4.245650e-02	1.646790e-06	1.662320e-04	7.572130e-04	3.355650e-04
34.7         	4.245290e-02	1.650350e-06	1.672680e-04	7.437410e-04	3.361240e-04
34.8         	4.245970e-02	1.650410e-06	1.663130e-04	7.569540e-04	3.354520e-04
34.9         	4.244300e-02	1.649960e-06	1.659890e-04	7.580610e-04	3.363580e-04
35           	4.246830e-02	1.645350e-06	1.674440e-04	7.424170e-04	3.355340e-04
35.1         	4.245080e-02	1.654830e-06	1.660960e-04	7.581030e-04	3.363790e-04
35.2         	4.245630e-02	1.645870e-06	1.662190e-04	7.572010e-04	3.355210e-04
35.3         	4.245190e-02	1.649430e-06	1.672530e-04	7.436770e-04	3.361430e-04
35.4         	4.246000e-02	1.649520e-06	1.663210e-04	7.569470e-04	3.354920e-04
35.5         	4.244420e-02	1.649260e-06	1.660020e-04	7.582470e-04	3.363400e-04
35.6         	4.246820e-02	1.644610e-06	1.674410e-04	7.423970e-04	3.354890e-04
35.7         	4.244990e-02	1.653900e-06	1.660760e-04	7.579680e-04	3.363960e-04
35.8         	4.245660e-02	1.645070e-06	1.662290e-04	7.572120e-04	3.355570e-04
35.9         	4.245310e-02	1.648720e-06	1.672590e-04	7.437540e-04	3.361330e-04
36           	4.245990e-02	1.648760e-06	1.663120e-04	7.569630e-04	3.354540e-04
36.1         	4.244320e-02	1.648400e-06	1.659960e-04	7.581630e-04	3.363460e-04
36.2         	4.246840e-02	1.643760e-06	1.674470e-04	7.424610e-04	3.355350e-04
36.3         	4.245100e-02	1.653220e-06	1.660920e-04	7.580990e-04	3.363710e-04
36.4         	4.245650e-02	1.644420e-06	1.662230e-04	7.572880e-04	3.355200e-04
36.5         	4.245210e-02	1.647810e-06	1.672460e-04	7.436060e-04	3.361510e-04
36.6         	4.246020e-02	1.648000e-06	1.663090e-04	7.569210e-04	3.354950e-04
36.7         	4.244430e-02	1.647720e-06	1.659990e-04	7.582280e-04	3.363380e-04
36.8         	4.246840e-02	1.643210e-06	1.674370e-04	7.424390e-04	3.354890e-04
36.9         	4.245000e-02	1.652580e-06	1.660850e-04	7.580750e-04	3.363890e-04
37           	4.245680e-02	1.643630e-06	1.662290e-04	7.572690e-04	3.355610e-04
37.1         	4.245320e-02	1.647330e-06	1.672630e-04	7.437840e-04	3.361350e-04
37.2         	4.246000e-02	1.647420e-06	1.663080e-04	7.569680e-04	3.354520e-04
37.3         	4.244340e-02	1.646910e-06	1.659880e-04	7.580310e-04	3.363570e-04
37.4         	4.246860e-02	1.642410e-06	1.674370e-04	7.424470e-04	3.355260e-04
37.5         	4.245110e-02	1.651990e-06	1.660940e-04	7.581390e-04	3.363780e-04
37.6         	4.245670e-02	1.643110e-06	1.662240e-04	7.573010e-04	3.355240e-04
37.7         	4.245230e-02	1.646660e-06	1.672550e-04	7.436930e-04	3.361400e-04
37.8         	4.246030e-02	1.646720e-06	1.663200e-04	7.569570e-04	3.354920e-04