/*--------------------------------*- C++ -*----------------------------------*\
| =========                 |                                                 |
| \\      /  F ield         | OpenFOAM: The Open Source CFD Toolbox           |
|  \\    /   O peration     | Version:  5.x                                   |
|   \\  /    A nd           | Web:      www.OpenFOAM.org                      |
|    \\/     M anipulation  |                                                 |
\*---------------------------------------------------------------------------*/
FoamFile
{
    version     2.0;
    format      ascii;
    class       volVectorField;
    location    "0";
    object      U;
}
// * * * * * * * * * * * * * * * * * * * * * * * * * * * * * * * * * * * * * //

dimensions      [0 1 -1 0 0 0 0];

internalField   nonuniform List<vector> 
61504
(
(5.16008 1.2042e-07 0.000448905)
(5.13289 5.12385e-07 0.00133792)
(5.10259 9.11141e-07 0.00130541)
(5.07898 1.08729e-06 0.000939165)
(5.06233 1.12931e-06 0.000603122)
(5.05059 1.10413e-06 0.000384107)
(5.042 9.87994e-07 0.000259866)
(5.03545 8.26026e-07 0.000188933)
(5.03025 6.39411e-07 0.000146276)
(5.026 4.43992e-07 0.000117966)
(5.02245 2.6038e-07 9.76092e-05)
(5.01944 7.4708e-08 8.2136e-05)
(5.01686 -9.51299e-08 7.03882e-05)
(5.01462 -2.50733e-07 6.09882e-05)
(5.01266 -3.84758e-07 5.33239e-05)
(5.01093 -5.08333e-07 4.70156e-05)
(5.00939 -6.1854e-07 4.17003e-05)
(5.00802 -7.20798e-07 3.73105e-05)
(5.00678 -8.10391e-07 3.35802e-05)
(5.00567 -8.89619e-07 3.03251e-05)
(5.00466 -9.61514e-07 2.75051e-05)
(5.00374 -1.02796e-06 2.50332e-05)
(5.0029 -1.08907e-06 2.28581e-05)
(5.00214 -1.14507e-06 2.09404e-05)
(5.00144 -1.19513e-06 1.92308e-05)
(5.00079 -1.24116e-06 1.77097e-05)
(5.0002 -1.28098e-06 1.63609e-05)
(4.99965 -1.31514e-06 1.51255e-05)
(4.99914 -1.34477e-06 1.40067e-05)
(4.99867 -1.37024e-06 1.29891e-05)
(4.99823 -1.39183e-06 1.2064e-05)
(4.99783 -1.40973e-06 1.12194e-05)
(4.99745 -1.42421e-06 1.04469e-05)
(4.9971 -1.43546e-06 9.73872e-06)
(4.99677 -1.44367e-06 9.08847e-06)
(4.99647 -1.449e-06 8.49061e-06)
(5.16008 2.26129e-07 0.000449136)
(5.1329 8.40813e-07 0.00133847)
(5.10259 1.32401e-06 0.0013059)
(5.07898 1.40855e-06 0.000939551)
(5.06233 1.37909e-06 0.0006034)
(5.05059 1.2586e-06 0.000384305)
(5.042 1.03525e-06 0.000260001)
(5.03544 7.68357e-07 0.000189027)
(5.03025 4.86975e-07 0.000146342)
(5.026 1.89429e-07 0.000118007)
(5.02245 -9.31611e-08 9.76327e-05)
(5.01944 -3.44749e-07 8.21456e-05)
(5.01686 -5.74994e-07 7.03887e-05)
(5.01462 -7.83204e-07 6.09804e-05)
(5.01266 -9.52825e-07 5.33088e-05)
(5.01093 -1.10381e-06 4.69943e-05)
(5.00939 -1.23838e-06 4.16742e-05)
(5.00801 -1.36423e-06 3.72798e-05)
(5.00678 -1.47589e-06 3.35464e-05)
(5.00567 -1.57822e-06 3.02889e-05)
(5.00466 -1.6732e-06 2.74667e-05)
(5.00374 -1.76215e-06 2.49926e-05)
(5.0029 -1.84567e-06 2.28157e-05)
(5.00214 -1.92452e-06 2.08964e-05)
(5.00144 -1.99823e-06 1.91858e-05)
(5.00079 -2.06935e-06 1.76637e-05)
(5.0002 -2.13486e-06 1.63145e-05)
(4.99965 -2.19578e-06 1.5079e-05)
(4.99914 -2.25345e-06 1.39605e-05)
(4.99867 -2.30791e-06 1.29434e-05)
(4.99823 -2.35927e-06 1.20188e-05)
(4.99783 -2.40759e-06 1.1175e-05)
(4.99745 -2.45295e-06 1.04034e-05)
(4.9971 -2.49532e-06 9.6962e-06)
(4.99678 -2.53459e-06 9.04706e-06)
(4.99647 -2.57072e-06 8.45042e-06)
(5.16008 2.27526e-07 0.000449134)
(5.1329 7.47818e-07 0.00133848)
(5.10259 9.06524e-07 0.0013059)
(5.07898 9.99239e-07 0.000939544)
(5.06233 9.96122e-07 0.000603393)
(5.05059 8.8816e-07 0.000384295)
(5.042 7.01311e-07 0.000259992)
(5.03544 4.7598e-07 0.00018902)
(5.03025 2.16023e-07 0.000146337)
(5.026 -4.94738e-08 0.000118005)
(5.02245 -3.05204e-07 9.76339e-05)
(5.01944 -5.44172e-07 8.21488e-05)
(5.01686 -8.02795e-07 7.03929e-05)
(5.01462 -1.0112e-06 6.09854e-05)
(5.01266 -1.20212e-06 5.33146e-05)
(5.01092 -1.3819e-06 4.70011e-05)
(5.00939 -1.54968e-06 4.16819e-05)
(5.00801 -1.70748e-06 3.72877e-05)
(5.00678 -1.85425e-06 3.35542e-05)
(5.00567 -1.99268e-06 3.02964e-05)
(5.00466 -2.12242e-06 2.7474e-05)
(5.00374 -2.24395e-06 2.50001e-05)
(5.0029 -2.35827e-06 2.28233e-05)
(5.00214 -2.4666e-06 2.09039e-05)
(5.00144 -2.56958e-06 1.91932e-05)
(5.00079 -2.66875e-06 1.76709e-05)
(5.0002 -2.76346e-06 1.63216e-05)
(4.99965 -2.85428e-06 1.5086e-05)
(4.99914 -2.94189e-06 1.39672e-05)
(4.99867 -3.02623e-06 1.29498e-05)
(4.99823 -3.10734e-06 1.20251e-05)
(4.99783 -3.18526e-06 1.1181e-05)
(4.99745 -3.25998e-06 1.04091e-05)
(4.9971 -3.3314e-06 9.70172e-06)
(4.99678 -3.39944e-06 9.05237e-06)
(4.99647 -3.46398e-06 8.45552e-06)
(5.16008 1.96531e-07 0.000449136)
(5.1329 5.64665e-07 0.00133849)
(5.10259 8.21659e-07 0.00130591)
(5.07898 9.12663e-07 0.000939561)
(5.06233 9.17781e-07 0.000603411)
(5.05059 8.28832e-07 0.000384312)
(5.042 6.68249e-07 0.000260006)
(5.03544 4.56539e-07 0.000189029)
(5.03025 2.06158e-07 0.000146343)
(5.026 -8.60494e-08 0.000118007)
(5.02245 -3.85183e-07 9.76327e-05)
(5.01944 -6.74014e-07 8.21466e-05)
(5.01686 -9.89119e-07 7.03866e-05)
(5.01462 -1.25896e-06 6.09768e-05)
(5.01266 -1.50576e-06 5.33047e-05)
(5.01092 -1.73885e-06 4.69899e-05)
(5.00939 -1.95997e-06 4.16698e-05)
(5.00801 -2.16786e-06 3.72752e-05)
(5.00678 -2.36615e-06 3.35419e-05)
(5.00567 -2.55517e-06 3.02843e-05)
(5.00466 -2.73522e-06 2.74622e-05)
(5.00374 -2.90673e-06 2.49887e-05)
(5.0029 -3.07013e-06 2.28123e-05)
(5.00214 -3.22622e-06 2.08936e-05)
(5.00144 -3.37563e-06 1.91836e-05)
(5.00079 -3.5192e-06 1.7662e-05)
(5.0002 -3.65683e-06 1.63134e-05)
(4.99965 -3.78888e-06 1.50784e-05)
(4.99914 -3.91569e-06 1.39603e-05)
(4.99867 -4.03733e-06 1.29436e-05)
(4.99823 -4.1539e-06 1.20194e-05)
(4.99783 -4.26542e-06 1.11758e-05)
(4.99745 -4.37194e-06 1.04045e-05)
(4.9971 -4.47344e-06 9.69761e-06)
(4.99678 -4.57e-06 9.04872e-06)
(4.99647 -4.66153e-06 8.45227e-06)
(5.16008 1.27023e-07 0.000449135)
(5.13289 3.28952e-07 0.00133849)
(5.10259 4.3943e-07 0.00130591)
(5.07898 4.71254e-07 0.000939559)
(5.06233 4.37107e-07 0.000603409)
(5.05059 3.35673e-07 0.000384309)
(5.042 1.78623e-07 0.000260003)
(5.03544 -1.86337e-08 0.000189028)
(5.03025 -2.43722e-07 0.000146342)
(5.026 -4.83494e-07 0.000118007)
(5.02245 -7.51757e-07 9.76338e-05)
(5.01944 -1.01235e-06 8.21487e-05)
(5.01686 -1.26191e-06 7.03896e-05)
(5.01462 -1.50412e-06 6.098e-05)
(5.01266 -1.74107e-06 5.3308e-05)
(5.01092 -1.9743e-06 4.69934e-05)
(5.00939 -2.20267e-06 4.16734e-05)
(5.00801 -2.42509e-06 3.72793e-05)
(5.00678 -2.64267e-06 3.35464e-05)
(5.00566 -2.85488e-06 3.02889e-05)
(5.00466 -3.06198e-06 2.74668e-05)
(5.00374 -3.2639e-06 2.49931e-05)
(5.0029 -3.46077e-06 2.28167e-05)
(5.00214 -3.65278e-06 2.08979e-05)
(5.00144 -3.84017e-06 1.91878e-05)
(5.00079 -4.02282e-06 1.7666e-05)
(5.0002 -4.20082e-06 1.63173e-05)
(4.99965 -4.37416e-06 1.50823e-05)
(4.99914 -4.5427e-06 1.3964e-05)
(4.99867 -4.70633e-06 1.29472e-05)
(4.99823 -4.8648e-06 1.2023e-05)
(4.99783 -5.01812e-06 1.11794e-05)
(4.99745 -5.16613e-06 1.0408e-05)
(4.9971 -5.3086e-06 9.70105e-06)
(4.99678 -5.44539e-06 9.05211e-06)
(4.99647 -5.57629e-06 8.4556e-06)
(5.16008 7.08609e-08 0.000449136)
(5.13289 1.80076e-07 0.00133849)
(5.10259 2.44451e-07 0.00130591)
(5.07898 2.58807e-07 0.000939559)
(5.06232 2.2305e-07 0.00060341)
(5.05059 1.33744e-07 0.000384311)
(5.042 -5.76058e-09 0.000260006)
(5.03544 -1.86347e-07 0.00018903)
(5.03025 -4.00488e-07 0.000146346)
(5.026 -6.42758e-07 0.000118012)
(5.02245 -9.06972e-07 9.76382e-05)
(5.01944 -1.19796e-06 8.21506e-05)
(5.01686 -1.48262e-06 7.03913e-05)
(5.01462 -1.76474e-06 6.09819e-05)
(5.01266 -2.04613e-06 5.331e-05)
(5.01092 -2.32608e-06 4.69955e-05)
(5.00939 -2.60379e-06 4.16756e-05)
(5.00801 -2.87721e-06 3.72814e-05)
(5.00678 -3.14806e-06 3.35483e-05)
(5.00566 -3.41318e-06 3.02909e-05)
(5.00466 -3.6741e-06 2.7469e-05)
(5.00374 -3.93077e-06 2.49957e-05)
(5.0029 -4.18272e-06 2.28194e-05)
(5.00214 -4.42947e-06 2.09007e-05)
(5.00143 -4.67095e-06 1.91907e-05)
(5.00079 -4.90652e-06 1.76691e-05)
(5.0002 -5.13654e-06 1.63206e-05)
(4.99965 -5.36069e-06 1.50856e-05)
(4.99914 -5.57854e-06 1.39675e-05)
(4.99867 -5.78983e-06 1.29508e-05)
(4.99823 -5.9943e-06 1.20267e-05)
(4.99783 -6.19169e-06 1.11832e-05)
(4.99745 -6.38177e-06 1.0412e-05)
(4.9971 -6.56433e-06 9.70514e-06)
(4.99678 -6.7391e-06 9.05629e-06)
(4.99647 -6.9059e-06 8.45988e-06)
(5.16008 1.61429e-08 0.000449136)
(5.13289 3.74729e-08 0.00133849)
(5.10259 2.85184e-08 0.00130591)
(5.07898 -1.78765e-08 0.000939558)
(5.06232 -1.0213e-07 0.000603409)
(5.05059 -2.25527e-07 0.00038431)
(5.042 -3.87557e-07 0.000260005)
(5.03544 -5.80486e-07 0.000189031)
(5.03025 -8.18079e-07 0.000146347)
(5.026 -1.07022e-06 0.000118014)
(5.02245 -1.33381e-06 9.76414e-05)
(5.01944 -1.60835e-06 8.21547e-05)
(5.01686 -1.89189e-06 7.03961e-05)
(5.01462 -2.18314e-06 6.09872e-05)
(5.01266 -2.4794e-06 5.33156e-05)
(5.01092 -2.77868e-06 4.70014e-05)
(5.00939 -3.07991e-06 4.16817e-05)
(5.00801 -3.38033e-06 3.72877e-05)
(5.00678 -3.68212e-06 3.35546e-05)
(5.00566 -3.98235e-06 3.02975e-05)
(5.00465 -4.28082e-06 2.7476e-05)
(5.00374 -4.57691e-06 2.50028e-05)
(5.0029 -4.86951e-06 2.28266e-05)
(5.00214 -5.15869e-06 2.0908e-05)
(5.00143 -5.44396e-06 1.91981e-05)
(5.00079 -5.72409e-06 1.76766e-05)
(5.0002 -5.99933e-06 1.6328e-05)
(4.99965 -6.26895e-06 1.50931e-05)
(4.99914 -6.5321e-06 1.3975e-05)
(4.99867 -6.78825e-06 1.29583e-05)
(4.99823 -7.03692e-06 1.20342e-05)
(4.99783 -7.27765e-06 1.11906e-05)
(4.99745 -7.50998e-06 1.04193e-05)
(4.9971 -7.73356e-06 9.71237e-06)
(4.99678 -7.94793e-06 9.06341e-06)
(4.99647 -8.1528e-06 8.4669e-06)
(5.16008 -2.87744e-08 0.000449136)
(5.13289 -7.65595e-08 0.00133849)
(5.10259 -1.40506e-07 0.00130591)
(5.07898 -2.27208e-07 0.000939559)
(5.06232 -3.40577e-07 0.000603411)
(5.05058 -4.85551e-07 0.000384313)
(5.042 -6.63822e-07 0.000260009)
(5.03544 -8.78622e-07 0.000189036)
(5.03025 -1.12601e-06 0.000146352)
(5.026 -1.39608e-06 0.000118017)
(5.02245 -1.68494e-06 9.76447e-05)
(5.01944 -1.99065e-06 8.21588e-05)
(5.01686 -2.30989e-06 7.04009e-05)
(5.01462 -2.64147e-06 6.09925e-05)
(5.01266 -2.98216e-06 5.33213e-05)
(5.01092 -3.32933e-06 4.70074e-05)
(5.00939 -3.68149e-06 4.16879e-05)
(5.00801 -4.03491e-06 3.72943e-05)
(5.00678 -4.39197e-06 3.35614e-05)
(5.00566 -4.74878e-06 3.03044e-05)
(5.00465 -5.10482e-06 2.74829e-05)
(5.00374 -5.45786e-06 2.50096e-05)
(5.0029 -5.80871e-06 2.28335e-05)
(5.00214 -6.156e-06 2.09151e-05)
(5.00143 -6.49888e-06 1.92052e-05)
(5.00079 -6.83564e-06 1.76838e-05)
(5.00019 -7.16649e-06 1.63353e-05)
(4.99965 -7.49039e-06 1.51005e-05)
(4.99914 -7.8062e-06 1.39824e-05)
(4.99867 -8.11321e-06 1.29657e-05)
(4.99823 -8.41069e-06 1.20416e-05)
(4.99783 -8.69807e-06 1.1198e-05)
(4.99745 -8.97476e-06 1.04267e-05)
(4.9971 -9.24028e-06 9.71968e-06)
(4.99677 -9.49416e-06 9.07066e-06)
(4.99647 -9.73597e-06 8.47406e-06)
(5.16008 -7.24698e-08 0.000449136)
(5.13289 -1.8695e-07 0.00133849)
(5.10259 -3.11566e-07 0.00130591)
(5.07898 -4.52405e-07 0.000939561)
(5.06232 -6.19896e-07 0.000603413)
(5.05058 -8.15695e-07 0.000384315)
(5.042 -1.04121e-06 0.000260012)
(5.03544 -1.29578e-06 0.000189039)
(5.03025 -1.57614e-06 0.000146355)
(5.026 -1.8814e-06 0.000118022)
(5.02245 -2.20688e-06 9.76498e-05)
(5.01944 -2.55019e-06 8.21645e-05)
(5.01686 -2.90851e-06 7.04073e-05)
(5.01462 -3.28097e-06 6.09994e-05)
(5.01265 -3.66426e-06 5.33286e-05)
(5.01092 -4.05575e-06 4.70151e-05)
(5.00938 -4.45398e-06 4.1696e-05)
(5.00801 -4.8547e-06 3.73028e-05)
(5.00678 -5.26085e-06 3.357e-05)
(5.00566 -5.6678e-06 3.03133e-05)
(5.00465 -6.07489e-06 2.7492e-05)
(5.00374 -6.48017e-06 2.50189e-05)
(5.0029 -6.88296e-06 2.2843e-05)
(5.00213 -7.28226e-06 2.09247e-05)
(5.00143 -7.67698e-06 1.92149e-05)
(5.00079 -8.06498e-06 1.76936e-05)
(5.00019 -8.44639e-06 1.63451e-05)
(4.99964 -8.81986e-06 1.51102e-05)
(4.99914 -9.18394e-06 1.39921e-05)
(4.99867 -9.5377e-06 1.29754e-05)
(4.99823 -9.88019e-06 1.20512e-05)
(4.99783 -1.02107e-05 1.12075e-05)
(4.99745 -1.05284e-05 1.04361e-05)
(4.9971 -1.08328e-05 9.72899e-06)
(4.99677 -1.11233e-05 9.07982e-06)
(4.99647 -1.13993e-05 8.48304e-06)
(5.16008 -1.166e-07 0.000449136)
(5.13289 -2.95669e-07 0.00133849)
(5.10259 -4.91525e-07 0.00130591)
(5.07898 -6.88021e-07 0.000939563)
(5.06232 -9.03417e-07 0.000603416)
(5.05058 -1.14508e-06 0.000384319)
(5.042 -1.417e-06 0.000260015)
(5.03544 -1.71916e-06 0.000189042)
(5.03024 -2.04787e-06 0.00014636)
(5.026 -2.40309e-06 0.000118027)
(5.02244 -2.78018e-06 9.76556e-05)
(5.01944 -3.17728e-06 8.21709e-05)
(5.01686 -3.59168e-06 7.04144e-05)
(5.01462 -4.02264e-06 6.10069e-05)
(5.01265 -4.46655e-06 5.33366e-05)
(5.01092 -4.92039e-06 4.70236e-05)
(5.00938 -5.38256e-06 4.17048e-05)
(5.00801 -5.84796e-06 3.73122e-05)
(5.00678 -6.32006e-06 3.35797e-05)
(5.00566 -6.79325e-06 3.03234e-05)
(5.00465 -7.26669e-06 2.75022e-05)
(5.00374 -7.73718e-06 2.50292e-05)
(5.0029 -8.20539e-06 2.28534e-05)
(5.00213 -8.66916e-06 2.09352e-05)
(5.00143 -9.12708e-06 1.92255e-05)
(5.00079 -9.57655e-06 1.77043e-05)
(5.00019 -1.00176e-05 1.63558e-05)
(4.99964 -1.04487e-05 1.51209e-05)
(4.99914 -1.0868e-05 1.40029e-05)
(4.99867 -1.12742e-05 1.29861e-05)
(4.99823 -1.16665e-05 1.20618e-05)
(4.99783 -1.20438e-05 1.12181e-05)
(4.99745 -1.24053e-05 1.04465e-05)
(4.9971 -1.27503e-05 9.73925e-06)
(4.99677 -1.30782e-05 9.08993e-06)
(5.16008 -1.6503e-07 0.000449137)
(5.13289 -4.16856e-07 0.0013385)
(5.10259 -6.85972e-07 0.00130591)
(5.07898 -9.5805e-07 0.000939566)
(5.06232 -1.23503e-06 0.000603419)
(5.05058 -1.5398e-06 0.000384323)
(5.042 -1.87719e-06 0.00026002)
(5.03544 -2.2464e-06 0.000189047)
(5.03024 -2.64288e-06 0.000146366)
(5.02599 -3.06686e-06 0.000118033)
(5.02244 -3.51286e-06 9.76629e-05)
(5.01944 -3.97927e-06 8.21789e-05)
(5.01686 -4.46334e-06 7.0423e-05)
(5.01462 -4.96441e-06 6.10162e-05)
(5.01265 -5.47858e-06 5.33465e-05)
(5.01092 -6.00266e-06 4.70339e-05)
(5.00938 -6.53497e-06 4.17156e-05)
(5.00801 -7.06983e-06 3.73236e-05)
(5.00678 -7.61132e-06 3.35913e-05)
(5.00566 -8.15309e-06 3.03355e-05)
(5.00465 -8.69394e-06 2.75141e-05)
(5.00373 -9.2309e-06 2.50413e-05)
(5.0029 -9.76428e-06 2.28657e-05)
(5.00213 -1.02915e-05 2.09477e-05)
(5.00143 -1.08108e-05 1.9238e-05)
(5.00079 -1.13195e-05 1.7717e-05)
(5.00019 -1.18174e-05 1.63685e-05)
(4.99964 -1.23027e-05 1.51336e-05)
(4.99914 -1.27734e-05 1.40155e-05)
(4.99867 -1.32282e-05 1.29986e-05)
(4.99823 -1.36658e-05 1.20742e-05)
(4.99782 -1.40852e-05 1.12303e-05)
(4.99745 -1.44855e-05 1.04586e-05)
(4.9971 -1.48659e-05 9.75114e-06)
(4.99677 -1.52257e-05 9.10158e-06)
(5.16008 -2.21048e-07 0.000449138)
(5.13289 -5.56941e-07 0.0013385)
(5.10259 -9.12796e-07 0.00130592)
(5.07897 -1.26968e-06 0.000939569)
(5.06232 -1.6203e-06 0.000603423)
(5.05058 -2.00104e-06 0.000384328)
(5.042 -2.41744e-06 0.000260026)
(5.03544 -2.86812e-06 0.000189054)
(5.03024 -3.34729e-06 0.000146373)
(5.02599 -3.85543e-06 0.000118041)
(5.02244 -4.38599e-06 9.76716e-05)
(5.01944 -4.93765e-06 8.21884e-05)
(5.01686 -5.50746e-06 7.04332e-05)
(5.01462 -6.09478e-06 6.1027e-05)
(5.01265 -6.69532e-06 5.33579e-05)
(5.01092 -7.30562e-06 4.70458e-05)
(5.00938 -7.92374e-06 4.1728e-05)
(5.00801 -8.54327e-06 3.73366e-05)
(5.00678 -9.16894e-06 3.36046e-05)
(5.00566 -9.79357e-06 3.03491e-05)
(5.00465 -1.04141e-05 2.75281e-05)
(5.00373 -1.10308e-05 2.50555e-05)
(5.0029 -1.16416e-05 2.28801e-05)
(5.00213 -1.22436e-05 2.09621e-05)
(5.00143 -1.28349e-05 1.92526e-05)
(5.00078 -1.34121e-05 1.77316e-05)
(5.00019 -1.39753e-05 1.63832e-05)
(4.99964 -1.45223e-05 1.51482e-05)
(4.99913 -1.50507e-05 1.40299e-05)
(4.99866 -1.55592e-05 1.30129e-05)
(4.99823 -1.60463e-05 1.20884e-05)
(4.99782 -1.65108e-05 1.12443e-05)
(4.99745 -1.69519e-05 1.04724e-05)
(4.9971 -1.73687e-05 9.76469e-06)
(6.86937 1.25661e-07 0.00152638)
(6.8413 5.02244e-07 0.00244057)
(6.81544 9.40488e-07 0.00221939)
(6.79358 1.16992e-06 0.00172705)
(6.77587 1.27087e-06 0.00128247)
(6.76178 1.28998e-06 0.000951764)
(6.75052 1.19938e-06 0.000725504)
(6.74146 1.04781e-06 0.000568142)
(6.73404 8.61482e-07 0.000458129)
(6.72786 6.56319e-07 0.000378037)
(6.72263 4.51302e-07 0.000317207)
(6.71818 2.3559e-07 0.000269571)
(6.71433 3.03553e-08 0.000232374)
(6.71098 -1.65781e-07 0.000202239)
(6.70803 -3.36095e-07 0.000177404)
(6.70542 -4.97478e-07 0.00015675)
(6.7031 -6.43777e-07 0.000139258)
(6.70103 -7.80027e-07 0.000124599)
(6.69916 -9.02165e-07 0.000112085)
(6.69748 -1.01173e-06 0.000101188)
(6.69595 -1.1114e-06 9.17134e-05)
(6.69457 -1.20326e-06 8.34043e-05)
(6.6933 -1.28781e-06 7.60853e-05)
(6.69214 -1.36546e-06 6.96205e-05)
(6.69108 -1.43554e-06 6.38599e-05)
(6.69011 -1.49985e-06 5.87245e-05)
(6.68921 -1.55652e-06 5.41557e-05)
(6.68838 -1.60594e-06 5.00051e-05)
(6.68761 -1.64913e-06 4.62499e-05)
(6.68691 -1.68658e-06 4.28402e-05)
(6.68625 -1.71872e-06 3.97426e-05)
(6.68564 -1.74585e-06 3.69183e-05)
(6.68507 -1.76832e-06 3.4338e-05)
(6.68454 -1.78642e-06 3.19754e-05)
(6.68405 -1.80041e-06 2.98083e-05)
(6.68359 -1.81054e-06 2.78172e-05)
(6.86937 2.24623e-07 0.00152604)
(6.8413 8.25206e-07 0.00244072)
(6.81544 1.31467e-06 0.00221966)
(6.79357 1.55645e-06 0.00172734)
(6.77587 1.60993e-06 0.00128275)
(6.76178 1.53793e-06 0.000952006)
(6.75052 1.34766e-06 0.000725697)
(6.74145 1.07836e-06 0.000568291)
(6.73403 7.68896e-07 0.000458237)
(6.72785 4.38343e-07 0.000378107)
(6.72263 1.15275e-07 0.000317246)
(6.71817 -1.87795e-07 0.000269584)
(6.71433 -4.69153e-07 0.000232366)
(6.71097 -7.27846e-07 0.000202213)
(6.70803 -9.59184e-07 0.000177364)
(6.70542 -1.1686e-06 0.000156696)
(6.7031 -1.3568e-06 0.000139194)
(6.70103 -1.53178e-06 0.000124525)
(6.69916 -1.69011e-06 0.000112003)
(6.69748 -1.83564e-06 0.000101101)
(6.69595 -1.97076e-06 9.16201e-05)
(6.69457 -2.09731e-06 8.33058e-05)
(6.6933 -2.21628e-06 7.59822e-05)
(6.69215 -2.32867e-06 6.95136e-05)
(6.69108 -2.43408e-06 6.37502e-05)
(6.69011 -2.53502e-06 5.8612e-05)
(6.68921 -2.62902e-06 5.4042e-05)
(6.68838 -2.71656e-06 4.98909e-05)
(6.68762 -2.79891e-06 4.61358e-05)
(6.68691 -2.87638e-06 4.27266e-05)
(6.68625 -2.9492e-06 3.96298e-05)
(6.68564 -3.01754e-06 3.68069e-05)
(6.68507 -3.08157e-06 3.42283e-05)
(6.68454 -3.14132e-06 3.18676e-05)
(6.68405 -3.19678e-06 2.97027e-05)
(6.68359 -3.24792e-06 2.77141e-05)
(6.86937 2.12939e-07 0.00152604)
(6.8413 6.84742e-07 0.00244074)
(6.81544 9.57915e-07 0.00221965)
(6.79357 1.10849e-06 0.00172734)
(6.77587 1.15754e-06 0.00128275)
(6.76178 1.08914e-06 0.000951998)
(6.75052 9.23602e-07 0.000725687)
(6.74145 6.93678e-07 0.000568282)
(6.73403 4.21928e-07 0.000458231)
(6.72785 1.29162e-07 0.000378103)
(6.72263 -1.65998e-07 0.000317246)
(6.71817 -4.54493e-07 0.000269586)
(6.71433 -7.42287e-07 0.00023237)
(6.71097 -1.0149e-06 0.000202219)
(6.70802 -1.26879e-06 0.000177371)
(6.70542 -1.5064e-06 0.000156704)
(6.7031 -1.72905e-06 0.000139203)
(6.70103 -1.93936e-06 0.000124535)
(6.69916 -2.13702e-06 0.000112013)
(6.69748 -2.32428e-06 0.000101111)
(6.69595 -2.50105e-06 9.16302e-05)
(6.69457 -2.66778e-06 8.33163e-05)
(6.6933 -2.82539e-06 7.59929e-05)
(6.69214 -2.97514e-06 6.95243e-05)
(6.69108 -3.1178e-06 6.37608e-05)
(6.69011 -3.25494e-06 5.86222e-05)
(6.68921 -3.38627e-06 5.40518e-05)
(6.68838 -3.51222e-06 4.99003e-05)
(6.68762 -3.6335e-06 4.61445e-05)
(6.68691 -3.75017e-06 4.27347e-05)
(6.68625 -3.86234e-06 3.96374e-05)
(6.68564 -3.97007e-06 3.68137e-05)
(6.68507 -4.0734e-06 3.42344e-05)
(6.68454 -4.17226e-06 3.18731e-05)
(6.68405 -4.26658e-06 2.97075e-05)
(6.68359 -4.35621e-06 2.77183e-05)
(6.86937 1.82502e-07 0.00152605)
(6.8413 5.43505e-07 0.00244076)
(6.81544 8.22083e-07 0.00221968)
(6.79357 1.00081e-06 0.00172738)
(6.77586 1.06084e-06 0.00128278)
(6.76178 1.00402e-06 0.000952033)
(6.75052 8.66714e-07 0.000725718)
(6.74145 6.58094e-07 0.000568305)
(6.73403 3.8655e-07 0.000458245)
(6.72785 7.31663e-08 0.000378109)
(6.72263 -2.61906e-07 0.000317245)
(6.71817 -6.0207e-07 0.00026958)
(6.71433 -9.48127e-07 0.000232358)
(6.71097 -1.28436e-06 0.000202203)
(6.70802 -1.60405e-06 0.000177353)
(6.70542 -1.9078e-06 0.000156685)
(6.7031 -2.19681e-06 0.000139183)
(6.70103 -2.4719e-06 0.000124513)
(6.69916 -2.734e-06 0.000111992)
(6.69748 -2.98412e-06 0.000101089)
(6.69595 -3.22306e-06 9.16088e-05)
(6.69457 -3.45155e-06 8.32952e-05)
(6.6933 -3.67015e-06 7.59726e-05)
(6.69214 -3.87964e-06 6.95049e-05)
(6.69108 -4.08073e-06 6.37425e-05)
(6.69011 -4.27429e-06 5.8605e-05)
(6.68921 -4.46041e-06 5.40357e-05)
(6.68838 -4.63938e-06 4.98853e-05)
(6.68762 -4.81151e-06 4.61307e-05)
(6.68691 -4.97695e-06 4.27221e-05)
(6.68625 -5.13583e-06 3.96258e-05)
(6.68564 -5.28821e-06 3.68034e-05)
(6.68507 -5.43414e-06 3.42252e-05)
(6.68454 -5.57362e-06 3.1865e-05)
(6.68405 -5.7067e-06 2.97004e-05)
(6.68359 -5.83332e-06 2.77122e-05)
(6.86937 1.17042e-07 0.00152604)
(6.8413 3.18737e-07 0.00244076)
(6.81544 4.57815e-07 0.00221968)
(6.79357 5.20014e-07 0.00172737)
(6.77586 5.11885e-07 0.00128278)
(6.76178 4.29536e-07 0.000952028)
(6.75052 2.8085e-07 0.000725714)
(6.74145 7.92431e-08 0.000568303)
(6.73403 -1.62383e-07 0.000458246)
(6.72785 -4.31514e-07 0.000378112)
(6.72263 -7.22176e-07 0.00031725)
(6.71817 -1.02368e-06 0.000269586)
(6.71433 -1.32817e-06 0.000232365)
(6.71097 -1.63131e-06 0.000202211)
(6.70802 -1.93062e-06 0.000177362)
(6.70542 -2.22555e-06 0.000156694)
(6.7031 -2.51579e-06 0.000139193)
(6.70103 -2.80026e-06 0.000124523)
(6.69916 -3.07992e-06 0.000112002)
(6.69748 -3.35405e-06 0.0001011)
(6.69595 -3.62267e-06 9.16193e-05)
(6.69457 -3.88566e-06 8.33058e-05)
(6.6933 -4.14305e-06 7.59833e-05)
(6.69214 -4.39491e-06 6.95157e-05)
(6.69108 -4.64148e-06 6.37533e-05)
(6.69011 -4.88254e-06 5.8616e-05)
(6.68921 -5.11812e-06 5.40468e-05)
(6.68838 -5.34815e-06 4.98966e-05)
(6.68762 -5.57236e-06 4.61421e-05)
(6.68691 -5.79059e-06 4.27336e-05)
(6.68625 -6.00264e-06 3.96375e-05)
(6.68564 -6.20833e-06 3.68152e-05)
(6.68507 -6.40748e-06 3.42371e-05)
(6.68454 -6.59982e-06 3.1877e-05)
(6.68405 -6.78513e-06 2.97125e-05)
(6.68359 -6.96314e-06 2.77243e-05)
(6.86937 6.52719e-08 0.00152605)
(6.8413 1.74547e-07 0.00244076)
(6.81544 2.54292e-07 0.00221968)
(6.79357 2.86034e-07 0.00172737)
(6.77586 2.65568e-07 0.00128278)
(6.76178 1.87056e-07 0.000952036)
(6.75052 5.0708e-08 0.000725721)
(6.74145 -1.36632e-07 0.00056831)
(6.73403 -3.67746e-07 0.000458252)
(6.72785 -6.37106e-07 0.000378117)
(6.72263 -9.35131e-07 0.000317254)
(6.71817 -1.25787e-06 0.000269589)
(6.71433 -1.59482e-06 0.00023237)
(6.71097 -1.93918e-06 0.000202216)
(6.70802 -2.28673e-06 0.000177366)
(6.70542 -2.6352e-06 0.000156699)
(6.7031 -2.98339e-06 0.000139197)
(6.70103 -3.32863e-06 0.000124528)
(6.69916 -3.67218e-06 0.000112008)
(6.69748 -4.01162e-06 0.000101105)
(6.69595 -4.34658e-06 9.16256e-05)
(6.69456 -4.67683e-06 8.33125e-05)
(6.6933 -5.00212e-06 7.59904e-05)
(6.69214 -5.32192e-06 6.95232e-05)
(6.69108 -5.63611e-06 6.37614e-05)
(6.69011 -5.94382e-06 5.86245e-05)
(6.68921 -6.24522e-06 5.40558e-05)
(6.68838 -6.53996e-06 4.99059e-05)
(6.68762 -6.82741e-06 4.61518e-05)
(6.68691 -7.10716e-06 4.27436e-05)
(6.68625 -7.37885e-06 3.96478e-05)
(6.68564 -7.64213e-06 3.68257e-05)
(6.68507 -7.89668e-06 3.42479e-05)
(6.68454 -8.14217e-06 3.1888e-05)
(6.68405 -8.37823e-06 2.97236e-05)
(6.68359 -8.60456e-06 2.77356e-05)
(6.86937 1.48838e-08 0.00152605)
(6.8413 3.66436e-08 0.00244076)
(6.81544 3.26322e-08 0.00221968)
(6.79357 -8.6713e-09 0.00172737)
(6.77586 -9.12696e-08 0.00128278)
(6.76178 -2.17699e-07 0.000952036)
(6.75052 -3.89063e-07 0.000725722)
(6.74145 -6.00729e-07 0.000568312)
(6.73403 -8.51689e-07 0.000458256)
(6.72785 -1.13503e-06 0.000378123)
(6.72263 -1.44253e-06 0.000317262)
(6.71817 -1.76875e-06 0.000269599)
(6.71433 -2.10973e-06 0.00023238)
(6.71097 -2.46337e-06 0.000202227)
(6.70802 -2.82612e-06 0.000177378)
(6.70542 -3.19536e-06 0.000156711)
(6.7031 -3.56971e-06 0.00013921)
(6.70102 -3.94574e-06 0.000124542)
(6.69916 -4.32505e-06 0.000112022)
(6.69748 -4.70473e-06 0.00010112)
(6.69595 -5.0838e-06 9.16406e-05)
(6.69456 -5.46148e-06 8.33278e-05)
(6.6933 -5.83688e-06 7.60058e-05)
(6.69214 -6.20908e-06 6.95388e-05)
(6.69108 -6.57761e-06 6.3777e-05)
(6.69011 -6.94099e-06 5.86402e-05)
(6.68921 -7.29919e-06 5.40715e-05)
(6.68838 -7.65143e-06 4.99216e-05)
(6.68761 -7.99657e-06 4.61674e-05)
(6.6869 -8.33381e-06 4.27592e-05)
(6.68625 -8.6625e-06 3.96634e-05)
(6.68564 -8.98201e-06 3.68412e-05)
(6.68507 -9.29172e-06 3.42632e-05)
(6.68454 -9.59109e-06 3.19032e-05)
(6.68405 -9.87952e-06 2.97387e-05)
(6.68359 -1.01565e-05 2.77505e-05)
(6.86937 -2.64431e-08 0.00152605)
(6.8413 -7.37604e-08 0.00244077)
(6.81544 -1.41392e-07 0.00221968)
(6.79357 -2.33091e-07 0.00172738)
(6.77586 -3.55342e-07 0.00128279)
(6.76178 -5.13192e-07 0.00095204)
(6.75052 -7.10069e-07 0.000725728)
(6.74145 -9.46631e-07 0.000568319)
(6.73403 -1.22032e-06 0.000458263)
(6.72785 -1.5283e-06 0.000378131)
(6.72263 -1.86499e-06 0.000317271)
(6.71817 -2.22649e-06 0.000269609)
(6.71433 -2.60852e-06 0.000232391)
(6.71097 -3.00905e-06 0.000202239)
(6.70802 -3.424e-06 0.000177391)
(6.70542 -3.85009e-06 0.000156724)
(6.7031 -4.28548e-06 0.000139224)
(6.70102 -4.72566e-06 0.000124557)
(6.69916 -5.17227e-06 0.000112036)
(6.69748 -5.62139e-06 0.000101135)
(6.69595 -6.07154e-06 9.1656e-05)
(6.69456 -6.52117e-06 8.33436e-05)
(6.6933 -6.96931e-06 7.6022e-05)
(6.69214 -7.41451e-06 6.95553e-05)
(6.69108 -7.85589e-06 6.37938e-05)
(6.69011 -8.29136e-06 5.86573e-05)
(6.68921 -8.72074e-06 5.40888e-05)
(6.68838 -9.14288e-06 4.9939e-05)
(6.68761 -9.55625e-06 4.6185e-05)
(6.6869 -9.95979e-06 4.27768e-05)
(6.68625 -1.03525e-05 3.9681e-05)
(6.68564 -1.07337e-05 3.68588e-05)
(6.68507 -1.11025e-05 3.42808e-05)
(6.68454 -1.14581e-05 3.19206e-05)
(6.68405 -1.17999e-05 2.9756e-05)
(6.68359 -1.21272e-05 2.77676e-05)
(6.86937 -6.67526e-08 0.00152605)
(6.8413 -1.80654e-07 0.00244077)
(6.81544 -3.16578e-07 0.00221968)
(6.79357 -4.72071e-07 0.00172738)
(6.77586 -6.55665e-07 0.00128279)
(6.76178 -8.72605e-07 0.000952045)
(6.75052 -1.12631e-06 0.000725733)
(6.74145 -1.41676e-06 0.000568325)
(6.73403 -1.7408e-06 0.000458271)
(6.72785 -2.09732e-06 0.00037814)
(6.72263 -2.48182e-06 0.000317281)
(6.71817 -2.89132e-06 0.000269621)
(6.71433 -3.32253e-06 0.000232404)
(6.71097 -3.77411e-06 0.000202253)
(6.70802 -4.24207e-06 0.000177406)
(6.70541 -4.72322e-06 0.000156741)
(6.7031 -5.21588e-06 0.000139241)
(6.70102 -5.71502e-06 0.000124575)
(6.69916 -6.22284e-06 0.000112055)
(6.69748 -6.73478e-06 0.000101154)
(6.69595 -7.2491e-06 9.16759e-05)
(6.69456 -7.76414e-06 8.33639e-05)
(6.6933 -8.27839e-06 7.60426e-05)
(6.69214 -8.79003e-06 6.95762e-05)
(6.69108 -9.29792e-06 6.38148e-05)
(6.69011 -9.7995e-06 5.86786e-05)
(6.68921 -1.02944e-05 5.41102e-05)
(6.68838 -1.07811e-05 4.99604e-05)
(6.68761 -1.12578e-05 4.62064e-05)
(6.6869 -1.1723e-05 4.27981e-05)
(6.68625 -1.21755e-05 3.97022e-05)
(6.68563 -1.26143e-05 3.68798e-05)
(6.68507 -1.30383e-05 3.43016e-05)
(6.68454 -1.34467e-05 3.19412e-05)
(6.68405 -1.38386e-05 2.97763e-05)
(6.68359 -1.42131e-05 2.77876e-05)
(6.86937 -1.07288e-07 0.00152605)
(6.8413 -2.86647e-07 0.00244077)
(6.81544 -4.93362e-07 0.00221969)
(6.79357 -7.1544e-07 0.00172738)
(6.77586 -9.61252e-07 0.0012828)
(6.76178 -1.23808e-06 0.000952052)
(6.75052 -1.55103e-06 0.000725742)
(6.74145 -1.9013e-06 0.000568335)
(6.73403 -2.2858e-06 0.000458283)
(6.72785 -2.70438e-06 0.000378153)
(6.72263 -3.15275e-06 0.000317295)
(6.71817 -3.62857e-06 0.000269636)
(6.71432 -4.12886e-06 0.00023242)
(6.71097 -4.65254e-06 0.00020227)
(6.70802 -5.19534e-06 0.000177424)
(6.70541 -5.75374e-06 0.00015676)
(6.7031 -6.32591e-06 0.00013926)
(6.70102 -6.90594e-06 0.000124595)
(6.69916 -7.49645e-06 0.000112076)
(6.69747 -8.09192e-06 0.000101176)
(6.69595 -8.69025e-06 9.16982e-05)
(6.69456 -9.28916e-06 8.33868e-05)
(6.6933 -9.887e-06 7.60659e-05)
(6.69214 -1.04815e-05 6.95999e-05)
(6.69108 -1.1071e-05 6.38387e-05)
(6.6901 -1.16526e-05 5.87028e-05)
(6.68921 -1.22255e-05 5.41345e-05)
(6.68838 -1.2788e-05 4.99848e-05)
(6.68761 -1.33377e-05 4.62308e-05)
(6.6869 -1.3873e-05 4.28225e-05)
(6.68624 -1.43923e-05 3.97264e-05)
(6.68563 -1.48945e-05 3.69039e-05)
(6.68507 -1.53783e-05 3.43255e-05)
(6.68454 -1.58427e-05 3.19648e-05)
(6.68405 -1.62867e-05 2.97996e-05)
(6.86937 -1.51851e-07 0.00152605)
(6.8413 -4.04187e-07 0.00244078)
(6.81544 -6.89634e-07 0.00221969)
(6.79357 -9.91453e-07 0.00172739)
(6.77586 -1.31557e-06 0.0012828)
(6.76178 -1.67124e-06 0.000952061)
(6.75052 -2.06484e-06 0.000725753)
(6.74145 -2.49774e-06 0.000568347)
(6.73403 -2.96613e-06 0.000458296)
(6.72785 -3.47005e-06 0.000378167)
(6.72263 -4.00443e-06 0.000317311)
(6.71817 -4.56703e-06 0.000269653)
(6.71432 -5.15484e-06 0.000232439)
(6.71097 -5.76688e-06 0.00020229)
(6.70802 -6.39852e-06 0.000177445)
(6.70541 -7.04599e-06 0.000156782)
(6.70309 -7.70744e-06 0.000139284)
(6.70102 -8.37631e-06 0.00012462)
(6.69916 -9.05575e-06 0.000112101)
(6.69747 -9.73955e-06 0.000101202)
(6.69595 -1.04253e-05 9.17247e-05)
(6.69456 -1.11105e-05 8.34138e-05)
(6.6933 -1.17933e-05 7.60934e-05)
(6.69214 -1.24709e-05 6.96277e-05)
(6.69108 -1.31415e-05 6.38668e-05)
(6.6901 -1.38016e-05 5.87311e-05)
(6.6892 -1.44504e-05 5.41629e-05)
(6.68838 -1.50859e-05 5.00132e-05)
(6.68761 -1.57053e-05 4.62591e-05)
(6.6869 -1.63067e-05 4.28507e-05)
(6.68624 -1.68885e-05 3.97544e-05)
(6.68563 -1.74493e-05 3.69317e-05)
(6.68506 -1.79877e-05 3.43529e-05)
(6.68454 -1.85024e-05 3.19918e-05)
(6.68404 -1.89926e-05 2.98261e-05)
(6.86937 -2.03386e-07 0.00152605)
(6.8413 -5.40118e-07 0.00244078)
(6.81544 -9.17766e-07 0.0022197)
(6.79357 -1.31238e-06 0.0017274)
(6.77586 -1.72845e-06 0.00128282)
(6.76178 -2.17764e-06 0.000952074)
(6.75052 -2.66772e-06 0.000725767)
(6.74145 -3.20025e-06 0.000568363)
(6.73403 -3.7704e-06 0.000458313)
(6.72785 -4.3783e-06 0.000378186)
(6.72263 -5.01781e-06 0.000317331)
(6.71817 -5.68681e-06 0.000269675)
(6.71432 -6.38209e-06 0.000232463)
(6.71097 -7.10267e-06 0.000202315)
(6.70802 -7.8434e-06 0.000177471)
(6.70541 -8.60019e-06 0.000156808)
(6.70309 -9.37094e-06 0.000139311)
(6.70102 -1.01483e-05 0.000124649)
(6.69916 -1.09358e-05 0.00011213)
(6.69747 -1.17265e-05 0.000101232)
(6.69595 -1.25173e-05 9.17556e-05)
(6.69456 -1.33058e-05 8.34452e-05)
(6.69329 -1.40897e-05 7.61253e-05)
(6.69214 -1.48657e-05 6.96599e-05)
(6.69108 -1.56315e-05 6.38991e-05)