/*--------------------------------*- C++ -*----------------------------------*\
| =========                 |                                                 |
| \\      /  F ield         | OpenFOAM: The Open Source CFD Toolbox           |
|  \\    /   O peration     | Version:  5.x                                   |
|   \\  /    A nd           | Web:      www.OpenFOAM.org                      |
|    \\/     M anipulation  |                                                 |
\*---------------------------------------------------------------------------*/
FoamFile
{
    version     2.0;
    format      ascii;
    class       volScalarField;
    location    "0";
    object      alphat;
}
// * * * * * * * * * * * * * * * * * * * * * * * * * * * * * * * * * * * * * //

dimensions      [1 -1 -1 0 0 0 0];

internalField   nonuniform List<scalar> 
25800
(
0.00746823
0.00739536
0.00738088
0.00737901
0.00737906
0.00738053
0.00738256
0.00738489
0.0073873
0.00738971
0.00739207
0.00739437
0.00739659
0.00739872
0.00740077
0.00740274
0.00740462
0.00740643
0.00740817
0.00740983
0.00741143
0.00741297
0.00741445
0.00741587
0.00741725
0.00741857
0.00741984
0.00742107
0.00742226
0.00742341
0.00742453
0.00742561
0.00742665
0.00742767
0.00742865
0.00742961
0.00743054
0.00743144
0.00743232
0.00743318
0.00743402
0.00743483
0.00743563
0.0074364
0.00743716
0.00743791
0.00743863
0.00743934
0.00744003
0.00744071
0.00744138
0.00744203
0.00744267
0.0074433
0.00744391
0.00744452
0.00744511
0.00744569
0.00744626
0.00744682
0.00744738
0.00744792
0.00744845
0.00744897
0.00744949
0.00745
0.00745049
0.00745099
0.00745147
0.00745194
0.00745241
0.00745287
0.00745332
0.00745377
0.00745421
0.00745464
0.00745506
0.00745548
0.0074559
0.0074563
0.0074567
0.0074571
0.00745748
0.00745787
0.00745824
0.00745861
0.00745898
0.00745934
0.00745969
0.00746004
0.00746039
0.00746073
0.00746106
0.00746139
0.00746171
0.00746203
0.00746234
0.00746265
0.00746296
0.00746326
0.00746355
0.00746384
0.00746413
0.00746441
0.00746468
0.00746495
0.00746522
0.00746548
0.00746574
0.00746599
0.00746624
0.00746648
0.00746672
0.00746696
0.00746719
0.00746741
0.00746763
0.00746785
0.00746806
0.00746827
0.00746847
0.00746867
0.00746886
0.00746905
0.00746923
0.00746941
0.00746959
0.00746976
0.00746992
0.00747008
0.00747023
0.00747038
0.00747051
0.00747065
0.00747078
0.0074709
0.00747102
0.00747113
0.00747123
0.00747133
0.00747141
0.0074715
0.00747156
0.00747164
0.00747166
0.00747173
0.00747171
0.00747179
0.0074717
0.00747192
0.0223691
0.0219052
0.0217274
0.0216212
0.0215574
0.021517
0.0214902
0.0214718
0.021459
0.0214499
0.0214435
0.021439
0.021436
0.0214341
0.021433
0.0214326
0.0214327
0.0214331
0.0214339
0.021435
0.0214362
0.0214376
0.0214391
0.0214408
0.0214424
0.0214442
0.021446
0.0214478
0.0214496
0.0214515
0.0214533
0.0214551
0.021457
0.0214588
0.0214606
0.0214624
0.0214642
0.021466
0.0214677
0.0214695
0.0214712
0.0214729
0.0214745
0.0214762
0.0214778
0.0214794
0.021481
0.0214826
0.0214841
0.0214856
0.0214871
0.0214886
0.0214901
0.0214915
0.0214929
0.0214943
0.0214957
0.0214971
0.0214984
0.0214998
0.0215011
0.0215024
0.0215036
0.0215049
0.0215061
0.0215074
0.0215086
0.0215098
0.0215109
0.0215121
0.0215133
0.0215144
0.0215155
0.0215166
0.0215177
0.0215188
0.0215199
0.0215209
0.0215219
0.021523
0.021524
0.021525
0.021526
0.0215269
0.0215279
0.0215288
0.0215298
0.0215307
0.0215316
0.0215325
0.0215334
0.0215343
0.0215351
0.021536
0.0215368
0.0215377
0.0215385
0.0215393
0.0215401
0.0215409
0.0215417
0.0215424
0.0215432
0.0215439
0.0215447
0.0215454
0.0215461
0.0215468
0.0215475
0.0215482
0.0215489
0.0215495
0.0215502
0.0215508
0.0215515
0.0215521
0.0215527
0.0215533
0.0215539
0.0215545
0.0215551
0.0215557
0.0215562
0.0215568
0.0215573
0.0215578
0.0215583
0.0215588
0.0215593
0.0215598
0.0215603
0.0215608
0.0215612
0.0215617
0.0215621
0.0215625
0.0215629
0.0215633
0.0215637
0.0215641
0.0215644
0.0215648
0.0215651
0.0215654
0.0215657
0.021566
0.0215663
0.0215665
0.0215668
0.0215668
0.0398196
0.0384819
0.0378884
0.0375286
0.0372916
0.0371253
0.0370035
0.036911
0.036839
0.0367816
0.0367352
0.0366971
0.0366656
0.0366392
0.0366171
0.0365983
0.0365823
0.0365687
0.0365571
0.0365471
0.0365385
0.0365311
0.0365247
0.0365192
0.0365146
0.0365106
0.0365071
0.0365042
0.0365018
0.0364997
0.036498
0.0364967
0.0364955
0.0364947
0.036494
0.0364936
0.0364933
0.0364932
0.0364932
0.0364933
0.0364936
0.036494
0.0364944
0.0364949
0.0364955
0.0364962
0.0364969
0.0364976
0.0364985
0.0364993
0.0365002
0.0365011
0.0365021
0.0365031
0.0365041
0.0365051
0.0365062
0.0365072
0.0365083
0.0365094
0.0365105
0.0365116
0.0365127
0.0365139
0.036515
0.0365161
0.0365173
0.0365184
0.0365196
0.0365207
0.0365218
0.036523
0.0365241
0.0365252
0.0365264
0.0365275
0.0365286
0.0365297
0.0365309
0.036532
0.0365331
0.0365342
0.0365353
0.0365363
0.0365374
0.0365385
0.0365396
0.0365406
0.0365417
0.0365427
0.0365437
0.0365448
0.0365458
0.0365468
0.0365478
0.0365488
0.0365498
0.0365507
0.0365517
0.0365527
0.0365536
0.0365546
0.0365555
0.0365564
0.0365573
0.0365582
0.0365591
0.03656
0.0365609
0.0365618
0.0365626
0.0365635
0.0365643
0.0365652
0.036566
0.0365668
0.0365676
0.0365684
0.0365692
0.03657
0.0365708
0.0365715
0.0365723
0.036573
0.0365738
0.0365745
0.0365752
0.0365759
0.0365766
0.0365773
0.0365779
0.0365786
0.0365793
0.0365799
0.0365805
0.0365812
0.0365818
0.0365824
0.036583
0.0365835
0.0365841
0.0365847
0.0365853
0.0365858
0.0365864
0.0365869
0.0365875
0.0365879
0.0365886
0.0365889
0.0602838
0.0583402
0.0573183
0.0566514
0.0561804
0.0558297
0.055559
0.0553443
0.0551701
0.0550265
0.0549063
0.0548046
0.0547177
0.0546427
0.0545776
0.0545207
0.0544708
0.0544266
0.0543875
0.0543527
0.0543215
0.0542937
0.0542686
0.054246
0.0542256
0.0542072
0.0541905
0.0541753
0.0541615
0.0541489
0.0541374
0.054127
0.0541174
0.0541086
0.0541006
0.0540933
0.0540865
0.0540804
0.0540747
0.0540695
0.0540647
0.0540604
0.0540563
0.0540527
0.0540493
0.0540462
0.0540434
0.0540408
0.0540384
0.0540363
0.0540343
0.0540325
0.0540309
0.0540294
0.0540281
0.0540269
0.0540259
0.0540249
0.0540241
0.0540234
0.0540227
0.0540222
0.0540217
0.0540213
0.054021
0.0540208
0.0540206
0.0540204
0.0540204
0.0540203
0.0540204
0.0540204
0.0540206
0.0540207
0.0540209
0.0540211
0.0540214
0.0540217
0.054022
0.0540223
0.0540227
0.054023
0.0540235
0.0540239
0.0540243
0.0540248
0.0540253
0.0540258
0.0540263
0.0540268
0.0540273
0.0540278
0.0540284
0.054029
0.0540295
0.0540301
0.0540307
0.0540313
0.0540319
0.0540325
0.0540331
0.0540337
0.0540343
0.0540349
0.0540356
0.0540362
0.0540368
0.0540374
0.0540381
0.0540387
0.0540393
0.05404
0.0540406
0.0540413
0.0540419
0.0540425
0.0540432
0.0540438
0.0540444
0.0540451
0.0540457
0.0540463
0.0540469
0.0540476
0.0540482
0.0540488
0.0540494
0.05405
0.0540507
0.0540513
0.0540519
0.0540525
0.0540531
0.0540537
0.0540543
0.0540549
0.0540555
0.0540561
0.0540567
0.0540572
0.0540578
0.0540584
0.054059
0.0540596
0.0540602
0.054061
0.0540615
0.0540622
0.054063
0.0540637
0.0831441
0.0810142
0.079708
0.0787809
0.0780808
0.0775298
0.0770845
0.0767174
0.0764099
0.0761491
0.0759255
0.075732
0.0755633
0.075415
0.0752839
0.0751675
0.0750635
0.0749702
0.0748862
0.0748103
0.0747414
0.0746788
0.0746217
0.0745695
0.0745216
0.0744777
0.0744372
0.0743999
0.0743655
0.0743336
0.0743041
0.0742766
0.0742511
0.0742274
0.0742053
0.0741846
0.0741654
0.0741473
0.0741305
0.0741146
0.0740998
0.0740859
0.0740728
0.0740605
0.074049
0.0740381
0.0740278
0.0740181
0.074009
0.0740004
0.0739923
0.0739846
0.0739773
0.0739704
0.0739639
0.0739578
0.073952
0.0739464
0.0739412
0.0739362
0.0739315
0.0739271
0.0739229
0.0739188
0.073915
0.0739114
0.073908
0.0739047
0.0739016
0.0738987
0.0738959
0.0738932
0.0738907
0.0738882
0.073886
0.0738838
0.0738817
0.0738797
0.0738779
0.0738761
0.0738744
0.0738728
0.0738713
0.0738698
0.0738684
0.0738671
0.0738659
0.0738647
0.0738636
0.0738625
0.0738615
0.0738605
0.0738596
0.0738587
0.0738579
0.0738571
0.0738564
0.0738557
0.0738551
0.0738545
0.0738539
0.0738533
0.0738528
0.0738523
0.0738519
0.0738515
0.0738511
0.0738507
0.0738504
0.0738501
0.0738498
0.0738495
0.0738493
0.0738491
0.0738489
0.0738487
0.0738485
0.0738484
0.0738483
0.0738481
0.0738481
0.073848
0.0738479
0.0738479
0.0738479
0.0738479
0.0738479
0.0738479
0.0738479
0.073848
0.0738481
0.0738481
0.0738482
0.0738483
0.0738484
0.0738486
0.0738487
0.0738489
0.0738491
0.0738493
0.0738495
0.0738497
0.07385
0.0738502
0.0738505
0.073851
0.0738513
0.0738519
0.0738524
0.0738534
0.108201
0.106236
0.104859
0.103793
0.102933
0.102216
0.101609
0.101088
0.100638
0.100246
0.0999016
0.0995974
0.0993271
0.0990858
0.0988692
0.0986741
0.0984976
0.0983373
0.0981913
0.0980579
0.0979357
0.0978235
0.0977201
0.0976247
0.0975364
0.0974546
0.0973787
0.0973081
0.0972423
0.0971809
0.0971235
0.0970698
0.0970195
0.0969723
0.096928
0.0968863
0.096847
0.09681
0.096775
0.096742
0.0967108
0.0966813
0.0966533
0.0966268
0.0966017
0.0965778
0.0965551
0.0965336
0.096513
0.0964935
0.0964749
0.0964571
0.0964401
0.096424
0.0964085
0.0963938
0.0963796
0.0963661
0.0963532
0.0963408
0.0963289
0.0963175
0.0963066
0.0962961
0.096286
0.0962764
0.0962671
0.0962581
0.0962495
0.0962413
0.0962333
0.0962256
0.0962182
0.0962111
0.0962042
0.0961976
0.0961912
0.096185
0.096179
0.0961733
0.0961677
0.0961623
0.0961571
0.0961521
0.0961472
0.0961425
0.0961379
0.0961335
0.0961292
0.096125
0.096121
0.0961171
0.0961134
0.0961097
0.0961061
0.0961027
0.0960994
0.0960961
0.096093
0.0960899
0.0960869
0.0960841
0.0960813
0.0960786
0.0960759
0.0960734
0.0960709
0.0960685
0.0960661
0.0960638
0.0960616
0.0960595
0.0960574
0.0960554
0.0960534
0.0960515
0.0960496
0.0960478
0.0960461
0.0960444
0.0960427
0.0960411
0.0960396
0.0960381
0.0960366
0.0960352
0.0960338
0.0960325
0.0960312
0.09603
0.0960288
0.0960276
0.0960265
0.0960254
0.0960244
0.0960234
0.0960224
0.0960215
0.0960207
0.0960198
0.0960191
0.0960183
0.0960176
0.096017
0.0960164
0.096016
0.0960154
0.0960155
0.0960151
0.096016
0.13548
0.133914
0.132669
0.131619
0.130708
0.129902
0.129184
0.128542
0.127967
0.127451
0.126986
0.126567
0.126187
0.125842
0.125528
0.125242
0.124979
0.124738
0.124516
0.124311
0.124122
0.123946
0.123783
0.123631
0.12349
0.123358
0.123235
0.123119
0.123011
0.122909
0.122814
0.122724
0.122639
0.122559
0.122483
0.122412
0.122344
0.12228
0.122219
0.122161
0.122106
0.122054
0.122005
0.121957
0.121912
0.121869
0.121828
0.121789
0.121751
0.121716
0.121681
0.121648
0.121617
0.121587
0.121558
0.12153
0.121503
0.121477
0.121452
0.121429
0.121406
0.121384
0.121362
0.121342
0.121322
0.121303
0.121284
0.121266
0.121249
0.121233
0.121216
0.121201
0.121186
0.121171
0.121157
0.121143
0.12113
0.121117
0.121104
0.121092
0.12108
0.121069
0.121058
0.121047
0.121036
0.121026
0.121016
0.121007
0.120997
0.120988
0.120979
0.12097
0.120962
0.120954
0.120945
0.120938
0.12093
0.120922
0.120915
0.120908
0.120901
0.120894
0.120888
0.120881
0.120875
0.120869
0.120863
0.120857
0.120851
0.120846
0.12084
0.120835
0.12083
0.120824
0.120819
0.120815
0.12081
0.120805
0.120801
0.120796
0.120792
0.120787
0.120783
0.120779
0.120775
0.120771
0.120768
0.120764
0.12076
0.120757
0.120753
0.12075
0.120747
0.120743
0.12074
0.120737
0.120734
0.120731
0.120729
0.120726
0.120723
0.120721
0.120718
0.120716
0.120713
0.120711
0.120709
0.120708
0.120706
0.120706
0.165179
0.164104
0.163142
0.162251
0.161415
0.160621
0.159871
0.159167
0.158511
0.157902
0.157339
0.156818
0.156336
0.155891
0.155479
0.155097
0.154742
0.154413
0.154107
0.153821
0.153555
0.153306
0.153072
0.152854
0.152649
0.152456
0.152274
0.152103
0.151942
0.15179
0.151646
0.15151
0.151381
0.151258
0.151142
0.151032
0.150927
0.150827
0.150732
0.150642
0.150555
0.150473
0.150394
0.150318
0.150246
0.150177
0.150111
0.150048
0.149987
0.149929
0.149873
0.149819
0.149767
0.149717
0.149669
0.149623
0.149578
0.149535
0.149494
0.149454
0.149415
0.149378
0.149342
0.149307
0.149274
0.149241
0.149209
0.149179
0.149149
0.14912
0.149092
0.149065
0.149039
0.149014
0.148989
0.148965
0.148941
0.148919
0.148896
0.148875
0.148854
0.148834
0.148814
0.148794
0.148775
0.148757
0.148739
0.148722
0.148704
0.148688
0.148672
0.148656
0.14864
0.148625
0.14861
0.148596
0.148582
0.148568
0.148554
0.148541
0.148528
0.148515
0.148503
0.148491
0.148479
0.148467
0.148456
0.148445
0.148434
0.148423
0.148413
0.148403
0.148392
0.148383
0.148373
0.148364
0.148354
0.148345
0.148336
0.148328
0.148319
0.148311
0.148302
0.148294
0.148286
0.148279
0.148271
0.148264
0.148256
0.148249
0.148242
0.148235
0.148229
0.148222
0.148216
0.148209
0.148203
0.148197
0.148191
0.148186
0.14818
0.148174
0.148169
0.148164
0.148159
0.148154
0.148149
0.148145
0.14814
0.148138
0.197576
0.196979
0.196378
0.195757
0.195107
0.194431
0.193743
0.193058
0.192386
0.191738
0.191117
0.190526
0.189967
0.189439
0.188942
0.188473
0.188032
0.187617
0.187226
0.186857
0.18651
0.186183
0.185874
0.185582
0.185305
0.185044
0.184796
0.184562
0.184339
0.184128
0.183927
0.183735
0.183554
0.18338
0.183215
0.183057
0.182907
0.182763
0.182626
0.182494
0.182368
0.182248
0.182132
0.182021
0.181915
0.181812
0.181714
0.18162
0.181529
0.181441
0.181357
0.181276
0.181198
0.181122
0.181049
0.180979
0.180911
0.180846
0.180782
0.180721
0.180661
0.180604
0.180548
0.180494
0.180441
0.180391
0.180341
0.180293
0.180247
0.180202
0.180158
0.180115
0.180074
0.180034
0.179994
0.179956
0.179919
0.179883
0.179847
0.179813
0.179779
0.179746
0.179714
0.179683
0.179653
0.179623
0.179594
0.179566
0.179538
0.179511
0.179484
0.179458
0.179433
0.179408
0.179384
0.17936
0.179337
0.179314
0.179292
0.17927
0.179249
0.179228
0.179207
0.179187
0.179167
0.179148
0.179129
0.17911
0.179092
0.179074
0.179056
0.179039
0.179022
0.179006
0.178989
0.178973
0.178958
0.178942
0.178927
0.178912
0.178898
0.178883
0.178869
0.178855
0.178842
0.178829
0.178815
0.178803
0.17879
0.178778
0.178765
0.178753
0.178742
0.17873
0.178719
0.178708
0.178697
0.178686
0.178676
0.178665
0.178655
0.178645
0.178636
0.178626
0.178617
0.178608
0.178599
0.178591
0.178582
0.178577
0.232997
0.232806
0.232577
0.232282
0.231902
0.231438
0.230905
0.230325
0.229716
0.229096
0.228475
0.227864
0.227269
0.226692
0.226136
0.225603
0.225092
0.224604
0.224139
0.223695
0.223272
0.222869
0.222485
0.222119
0.22177
0.221437
0.22112
0.220817
0.220528
0.220252
0.219988
0.219735
0.219494
0.219263
0.219042
0.21883
0.218627
0.218432
0.218244
0.218065
0.217892
0.217726
0.217567
0.217413
0.217265
0.217123
0.216985
0.216853
0.216725
0.216602
0.216483
0.216368
0.216257
0.21615
0.216046
0.215945
0.215848
0.215754
0.215662
0.215574
0.215488
0.215404
0.215324
0.215245
0.215169
0.215095
0.215023
0.214953
0.214884
0.214818
0.214754
0.214691
0.214629
0.21457
0.214512
0.214455
0.2144
0.214346
0.214293
0.214242
0.214191
0.214142
0.214095
0.214048
0.214002
0.213957
0.213913
0.213871
0.213829
0.213788
0.213748
0.213708
0.21367
0.213632
0.213595
0.213559
0.213524
0.213489
0.213455
0.213421
0.213389
0.213357
0.213325
0.213294
0.213264
0.213234
0.213205
0.213176
0.213148
0.21312
0.213093
0.213066
0.21304
0.213014
0.212988
0.212964
0.212939
0.212915
0.212891
0.212868
0.212845
0.212823
0.212801
0.212779
0.212757
0.212736
0.212716
0.212695
0.212675
0.212656
0.212636
0.212617
0.212599
0.21258
0.212562
0.212544
0.212527
0.21251
0.212493
0.212476
0.21246
0.212444
0.212428
0.212412
0.212397
0.212382
0.212367
0.212354
0.212339
0.212329
0.271802
0.271917
0.27202
0.27206
0.271993
0.271805
0.271505
0.271111
0.270645
0.270128
0.269577
0.269007
0.268429
0.267851
0.267278
0.266715
0.266165
0.26563
0.265112
0.26461
0.264126
0.263659
0.263209
0.262776
0.26236
0.261959
0.261575
0.261205
0.260849
0.260507
0.260179
0.259863
0.259559
0.259267
0.258985
0.258714
0.258454
0.258202
0.25796
0.257727
0.257502
0.257285
0.257075
0.256873
0.256677
0.256489
0.256306
0.25613
0.255959
0.255794
0.255634
0.255479
0.255329
0.255184
0.255043
0.254906
0.254773
0.254644
0.254519
0.254398
0.25428
0.254165
0.254054
0.253945
0.253839
0.253737
0.253637
0.253539
0.253444
0.253352
0.253261
0.253173
0.253087
0.253004
0.252922
0.252842
0.252764
0.252688
0.252613
0.252541
0.252469
0.2524
0.252332
0.252265
0.2522
0.252136
0.252074
0.252012
0.251953
0.251894
0.251836
0.25178
0.251725
0.25167
0.251617
0.251565
0.251514
0.251464
0.251414
0.251366
0.251318
0.251272
0.251226
0.251181
0.251137
0.251093
0.251051
0.251009
0.250967
0.250927
0.250887
0.250848
0.250809
0.250772
0.250734
0.250698
0.250662
0.250626
0.250591
0.250557
0.250523
0.25049
0.250457
0.250425
0.250393
0.250362
0.250331
0.250301
0.250271
0.250242
0.250213
0.250184
0.250156
0.250129
0.250102
0.250075
0.250049
0.250023
0.249997
0.249972
0.249947
0.249923
0.249899
0.249875
0.249852
0.249829
0.249806
0.249785
0.249763
0.249745
0.31438
0.3147
0.315066
0.315405
0.315651
0.315769
0.315752
0.315608
0.315355
0.315014
0.314604
0.314143
0.313646
0.313123
0.312585
0.31204
0.311492
0.310947
0.310408
0.309877
0.309357
0.308848
0.308351
0.307868
0.307398
0.306941
0.306499
0.30607
0.305654
0.305252
0.304862
0.304485
0.30412
0.303768
0.303426
0.303096
0.302776
0.302467
0.302167
0.301877
0.301597
0.301325
0.301062
0.300807
0.30056
0.30032
0.300088
0.299862
0.299644
0.299432
0.299226
0.299026
0.298831
0.298643
0.298459
0.298281
0.298108
0.297939
0.297775
0.297615
0.297459
0.297308
0.29716
0.297017
0.296876
0.29674
0.296606
0.296476
0.296349
0.296225
0.296104
0.295986
0.29587
0.295758
0.295647
0.295539
0.295434
0.295331
0.29523
0.295131
0.295034
0.294939
0.294847
0.294756
0.294667
0.294579
0.294494
0.29441
0.294328
0.294247
0.294168
0.29409
0.294014
0.293939
0.293866
0.293794
0.293723
0.293653
0.293585
0.293518
0.293452
0.293387
0.293323
0.293261
0.293199
0.293139
0.293079
0.293021
0.292963
0.292906
0.29285
0.292796
0.292741
0.292688
0.292636
0.292584
0.292534
0.292484
0.292434
0.292386
0.292338
0.292291
0.292245
0.292199
0.292154
0.29211
0.292066
0.292023
0.291981
0.291939
0.291898
0.291857
0.291817
0.291778
0.291739
0.291701
0.291663
0.291626
0.291589
0.291553
0.291517
0.291482
0.291447
0.291413
0.291379
0.291346
0.291313
0.291281
0.291249
0.291222
0.361146
0.361586
0.362133
0.362709
0.363231
0.363647
0.363931
0.364074
0.364086
0.363981
0.363776
0.363489
0.363136
0.362732
0.362288
0.361814
0.36132
0.360812
0.360295
0.359773
0.359252
0.358732
0.358217
0.357709
0.357208
0.356716
0.356233
0.355761
0.355299
0.354848
0.354408
0.353979
0.353561
0.353154
0.352758
0.352372
0.351997
0.351632
0.351277
0.350932
0.350596
0.35027
0.349952
0.349643
0.349343
0.349051
0.348766
0.34849
0.34822
0.347958
0.347703
0.347454
0.347212
0.346976
0.346747
0.346523
0.346304
0.346092
0.345884
0.345681
0.345484
0.345291
0.345103
0.344919
0.344739
0.344564
0.344393
0.344225
0.344061
0.343901
0.343745
0.343592
0.343442
0.343295
0.343151
0.343011
0.342873
0.342738
0.342606
0.342476
0.342349
0.342225
0.342103
0.341983
0.341866
0.341751
0.341637
0.341526
0.341418
0.341311
0.341206
0.341102
0.341001
0.340901
0.340804
0.340707
0.340613
0.34052
0.340428
0.340339
0.34025
0.340163
0.340078
0.339994
0.339911
0.339829
0.339749
0.33967
0.339592
0.339516
0.33944
0.339366
0.339293
0.339221
0.33915
0.33908
0.339011
0.338943
0.338876
0.33881
0.338745
0.338681
0.338617
0.338555
0.338494
0.338433
0.338373
0.338314
0.338256
0.338199
0.338142
0.338086
0.338031
0.337977
0.337923
0.33787
0.337818
0.337767
0.337716
0.337666
0.337616
0.337568
0.337519
0.337472
0.337425
0.337378
0.337332
0.337287
0.337242
0.337203
0.412546
0.413042
0.413693
0.414429
0.415166
0.415841
0.416408
0.416845
0.417146
0.417315
0.417363
0.417305
0.417156
0.41693
0.416639
0.416296
0.41591
0.415492
0.415047
0.414582
0.414102
0.413613
0.413117
0.412618
0.412118
0.411619
0.411123
0.410631
0.410145
0.409665
0.409193
0.408728
0.408272
0.407823
0.407384
0.406954
0.406532
0.40612
0.405716
0.405322
0.404936
0.404559
0.404191
0.403831
0.40348
0.403136
0.402801
0.402474
0.402154
0.401842
0.401537
0.401239
0.400947
0.400663
0.400385
0.400113
0.399848
0.399588
0.399334
0.399086
0.398844
0.398606
0.398374
0.398147
0.397925
0.397707
0.397494
0.397285
0.397081
0.39688
0.396684
0.396492
0.396304
0.396119
0.395938
0.39576
0.395586
0.395415
0.395248
0.395083
0.394922
0.394763
0.394608
0.394455
0.394305
0.394157
0.394012
0.39387
0.39373
0.393592
0.393457
0.393324
0.393193
0.393065
0.392938
0.392814
0.392691
0.392571
0.392452
0.392336
0.392221
0.392107
0.391996
0.391886
0.391778
0.391672
0.391567
0.391463
0.391362
0.391261
0.391162
0.391065
0.390969
0.390874
0.390781
0.390688
0.390598
0.390508
0.39042
0.390332
0.390246
0.390162
0.390078
0.389995
0.389914
0.389833
0.389754
0.389676
0.389598
0.389522
0.389447
0.389372
0.389299
0.389226
0.389155
0.389084
0.389014
0.388945
0.388877
0.388809
0.388743
0.388677
0.388612
0.388548
0.388485
0.388422
0.38836
0.388298
0.388237
0.388183
0.469062
0.469569
0.470261
0.471084
0.471962
0.472832
0.473638
0.474343
0.474928
0.475383
0.475711
0.475919
0.476018
0.476019
0.475935
0.475776
0.475555
0.47528
0.47496
0.474603
0.474215
0.473803
0.47337
0.472922
0.472462
0.471993
0.471518
0.471039
0.470559
0.470078
0.469599
0.469122
0.468649
0.46818
0.467716
0.467258
0.466805
0.46636
0.465921
0.465489
0.465064
0.464647
0.464236
0.463834
0.463438
0.46305
0.46267
0.462297
0.461931
0.461572
0.46122
0.460875
0.460537
0.460205
0.45988
0.459562
0.459249
0.458943
0.458643
0.458349
0.45806
0.457777
0.4575
0.457228
0.456961
0.456699
0.456442
0.45619
0.455942
0.4557
0.455461
0.455227
0.454997
0.454772
0.45455
0.454332
0.454118
0.453908
0.453702
0.453499
0.453299
0.453103
0.45291
0.45272
0.452534
0.45235
0.45217
0.451992
0.451818
0.451646
0.451476
0.45131
0.451146
0.450984
0.450825
0.450668
0.450514
0.450362
0.450212
0.450065
0.449919
0.449776
0.449635
0.449495
0.449358
0.449223
0.449089
0.448958
0.448828
0.4487
0.448574
0.448449
0.448326
0.448205
0.448085
0.447967
0.447851
0.447735
0.447622
0.44751
0.447399
0.44729
0.447182
0.447075
0.44697
0.446866
0.446763
0.446662
0.446562
0.446463
0.446365
0.446269
0.446173
0.446079
0.445986
0.445893
0.445802
0.445712
0.445623
0.445535
0.445448
0.445362
0.445277
0.445193
0.44511
0.445027
0.444946
0.444865
0.444784
0.444712
0.531215
0.531708
0.532398
0.533244
0.53419
0.535181
0.53616
0.537084
0.537918
0.538643
0.53925
0.539737
0.540108
0.54037
0.540532
0.540603
0.540594
0.540513
0.540369
0.54017
0.539924
0.539638
0.539317
0.538966
0.538591
0.538195
0.537782
0.537355
0.536916
0.53647
0.536017
0.535559
0.535098
0.534636
0.534173
0.533711
0.533251
0.532793
0.532338
0.531887
0.53144
0.530998
0.530561
0.530128
0.529702
0.529281
0.528866
0.528456
0.528053
0.527656
0.527265
0.52688
0.526501
0.526128
0.525761
0.5254
0.525045
0.524696
0.524352
0.524014
0.523682
0.523356
0.523034
0.522718
0.522408
0.522102
0.521802
0.521506
0.521216
0.52093
0.520648
0.520372
0.520099
0.519831
0.519568
0.519308
0.519053
0.518802
0.518554
0.51831
0.518071
0.517834
0.517602
0.517373
0.517147
0.516925
0.516706
0.51649
0.516278
0.516068
0.515862
0.515658
0.515458
0.51526
0.515065
0.514873
0.514683
0.514496
0.514312
0.51413
0.513951
0.513774
0.513599
0.513427
0.513257
0.513089
0.512923
0.51276
0.512598
0.512439
0.512282
0.512126
0.511973
0.511822
0.511672
0.511524
0.511378
0.511234
0.511092
0.510951
0.510812
0.510674
0.510539
0.510404
0.510272
0.510141
0.510011
0.509883
0.509756
0.509631
0.509507
0.509385
0.509264
0.509144
0.509026
0.508908
0.508793
0.508678
0.508565
0.508452
0.508341
0.508231
0.508123
0.508015
0.507908
0.507803
0.507698
0.507594
0.507491
0.507396
0.599575
0.600041
0.600703
0.601525
0.602478
0.603518
0.604598
0.60567
0.606697
0.607649
0.608507
0.60926
0.609903
0.610437
0.610866
0.611196
0.611433
0.611585
0.61166
0.611666
0.611608
0.611496
0.611334
0.611128
0.610884
0.610606
0.610299
0.609967
0.609613
0.609241
0.608852
0.608451
0.608038
0.607616
0.607187
0.606752
0.606313
0.60587
0.605426
0.604981
0.604535
0.60409
0.603647
0.603205
0.602766
0.602329
0.601896
0.601466
0.60104
0.600618
0.600201
0.599787
0.599379
0.598975
0.598575
0.598181
0.597792
0.597407
0.597027
0.596653
0.596283
0.595918
0.595558
0.595203
0.594853
0.594508
0.594167
0.593831
0.5935
0.593173
0.592851
0.592533
0.59222
0.591911
0.591606
0.591305
0.591009
0.590717
0.590428
0.590144
0.589863
0.589587
0.589314
0.589044
0.588778
0.588516
0.588258
0.588002
0.58775
0.587502
0.587256
0.587014
0.586775
0.586539
0.586306
0.586076
0.585849
0.585624
0.585403
0.585184
0.584968
0.584755
0.584544
0.584336
0.58413
0.583927
0.583726
0.583528
0.583332
0.583138
0.582947
0.582758
0.582571
0.582386
0.582203
0.582022
0.581844
0.581667
0.581492
0.58132
0.581149
0.58098
0.580813
0.580648
0.580484
0.580322
0.580162
0.580004
0.579847
0.579692
0.579539
0.579387
0.579237
0.579089
0.578941
0.578796
0.578652
0.578509
0.578368
0.578228
0.578089
0.577952
0.577816
0.577681
0.577547
0.577415
0.577283
0.577153
0.577023
0.576904
0.674767
0.675198
0.67582
0.676593
0.677507
0.678536
0.679644
0.680793
0.681942
0.683058
0.684116
0.685096
0.685986
0.686779
0.687473
0.688069
0.688568
0.688977
0.6893
0.689542
0.689711
0.689812
0.689851
0.689833
0.689765
0.68965
0.689495
0.689302
0.689076
0.68882
0.688539
0.688234
0.687909
0.687566
0.687208
0.686836
0.686452
0.686059
0.685657
0.685249
0.684834
0.684415
0.683992
0.683567
0.68314
0.682711
0.682282
0.681853
0.681425
0.680998
0.680572
0.680148
0.679726
0.679307
0.67889
0.678476
0.678066
0.677658
0.677254
0.676854
0.676457
0.676064
0.675675
0.675289
0.674908
0.67453
0.674157
0.673787
0.673422
0.67306
0.672702
0.672349
0.671999
0.671653
0.671311
0.670973
0.670639
0.670309
0.669982
0.669659
0.66934
0.669025
0.668713
0.668405
0.6681
0.667799
0.667501
0.667207
0.666916
0.666629
0.666344
0.666063
0.665785
0.665511
0.665239
0.66497
0.664705
0.664442
0.664183
0.663926
0.663672
0.663421
0.663172
0.662927
0.662684
0.662443
0.662206
0.661971
0.661738
0.661508
0.66128
0.661055
0.660832
0.660611
0.660393
0.660177
0.659963
0.659751
0.659542
0.659334
0.659129
0.658926
0.658725
0.658526
0.658329
0.658133
0.65794
0.657749
0.657559
0.657372
0.657186
0.657001
0.656819
0.656638
0.65646
0.656282
0.656107
0.655932
0.65576
0.655589
0.65542
0.655252
0.655085
0.65492
0.654756
0.654593
0.654432
0.654272
0.654112
0.653964
0.757475
0.757869
0.758445
0.75916
0.760008
0.760983
0.762062
0.763217
0.764415
0.765624
0.766815
0.767964
0.769052
0.770067
0.771
0.771845
0.772601
0.773269
0.77385
0.774347
0.774764
0.775106
0.775377
0.775582
0.775726
0.775813
0.775848
0.775836
0.775779
0.775683
0.77555
0.775384
0.775188
0.774966
0.774718
0.774449
0.77416
0.773853
0.77353
0.773194
0.772845
0.772485
0.772115
0.771737
0.771352
0.770961
0.770564
0.770163
0.769758
0.76935
0.768941
0.768529
0.768116
0.767703
0.767289
0.766875
0.766462
0.76605
0.765639
0.765229
0.76482
0.764414
0.76401
0.763607
0.763208
0.76281
0.762415
0.762023
0.761634
0.761247
0.760864
0.760483
0.760105
0.759731
0.75936
0.758991
0.758626
0.758264
0.757906
0.75755
0.757198
0.756849
0.756503
0.75616
0.755821
0.755485
0.755151
0.754821
0.754494
0.754171
0.75385
0.753532
0.753218
0.752906
0.752598
0.752292
0.751989
0.751689
0.751393
0.751098
0.750807
0.750519
0.750233
0.74995
0.74967
0.749392
0.749117
0.748845
0.748575
0.748308
0.748043
0.747781
0.747521
0.747264
0.747009
0.746756
0.746506
0.746258
0.746012
0.745768
0.745527
0.745288
0.745051
0.744816
0.744584
0.744353
0.744124
0.743898
0.743673
0.74345
0.74323
0.743011
0.742794
0.742579
0.742366
0.742154
0.741945
0.741737
0.74153
0.741326
0.741123
0.740921
0.740722
0.740523
0.740326
0.740131
0.739936
0.739744
0.739551
0.739372
0.84845
0.848808
0.849339
0.849994
0.850769
0.851664
0.852673
0.85378
0.854962
0.856192
0.857443
0.85869
0.859913
0.861092
0.862215
0.863272
0.864256
0.865163
0.86599
0.866738
0.867407
0.868
0.868519
0.868967
0.869348
0.869665
0.869922
0.870123
0.870271
0.87037
0.870424
0.870436
0.870408
0.870345
0.870248
0.870121
0.869966
0.869784
0.86958
0.869353
0.869107
0.868843
0.868563
0.868267
0.867959
0.867638
0.867306
0.866965
0.866615
0.866257
0.865892
0.86552
0.865144
0.864763
0.864377
0.863989
0.863597
0.863203
0.862806
0.862409
0.86201
0.86161
0.86121
0.860809
0.860409
0.860008
0.859609
0.85921
0.858812
0.858415
0.85802
0.857626
0.857233
0.856843
0.856454
0.856067
0.855682
0.855299
0.854918
0.854539
0.854163
0.853789
0.853417
0.853048
0.852681
0.852317
0.851955
0.851596
0.851239
0.850885
0.850534
0.850185
0.849839
0.849495
0.849154
0.848815
0.84848
0.848146
0.847816
0.847487
0.847162
0.846839
0.846519
0.846201
0.845885
0.845573
0.845262
0.844954
0.844649
0.844346
0.844046
0.843748
0.843452
0.843158
0.842867
0.842579
0.842292
0.842008
0.841726
0.841447
0.841169
0.840894
0.840621
0.84035
0.840082
0.839815
0.83955
0.839288
0.839027
0.838769
0.838512
0.838258
0.838005
0.837754
0.837505
0.837258
0.837013
0.83677
0.836528
0.836288
0.83605
0.835814
0.835579
0.835345
0.835113
0.834883
0.834653
0.834426
0.834199
0.833986
0.948517
0.948841
0.949329
0.949929
0.950633
0.951441
0.95236
0.953383
0.954498
0.955687
0.95693
0.958204
0.959489
0.960764
0.962015
0.963226
0.964389
0.965493
0.966534
0.967508
0.968412
0.969245
0.970008
0.970701
0.971326
0.971885
0.972381
0.972816
0.973193
0.973515
0.973785
0.974006
0.97418
0.97431
0.974399
0.97445
0.974465
0.974447
0.974398
0.974319
0.974214
0.974083
0.973929
0.973753
0.973558
0.973343
0.973112
0.972865
0.972604
0.972329
0.972042
0.971743
0.971435
0.971116
0.97079
0.970455
0.970113
0.969765
0.969411
0.969051
0.968687
0.968319
0.967946
0.967571
0.967193
0.966812
0.966429
0.966044
0.965658
0.96527
0.964882
0.964492
0.964103
0.963713
0.963323
0.962933
0.962543
0.962154
0.961765
0.961378
0.960991
0.960605
0.96022
0.959836
0.959454
0.959073
0.958693
0.958315
0.957939
0.957564
0.957191
0.95682
0.95645
0.956082
0.955717
0.955353
0.954991
0.954631
0.954274
0.953918
0.953564
0.953213
0.952863
0.952516
0.952171
0.951827
0.951486
0.951147
0.950811
0.950476
0.950143
0.949813
0.949485
0.949159
0.948835
0.948513
0.948193
0.947875
0.94756
0.947246
0.946935
0.946625
0.946318
0.946012
0.945709
0.945407
0.945108
0.944811
0.944515
0.944221
0.94393
0.94364
0.943352
0.943066
0.942782
0.942499
0.942219
0.94194
0.941663
0.941387
0.941113
0.940841
0.940571
0.940301
0.940034
0.939767
0.939503
0.939239
0.938976
0.93873
1.05859
1.05888
1.05933
1.05988
1.06052
1.06124
1.06207
1.06299