/*--------------------------------*- C++ -*----------------------------------*\
| =========                 |                                                 |
| \\      /  F ield         | OpenFOAM: The Open Source CFD Toolbox           |
|  \\    /   O peration     | Version:  5.x                                   |
|   \\  /    A nd           | Web:      www.OpenFOAM.org                      |
|    \\/     M anipulation  |                                                 |
\*---------------------------------------------------------------------------*/
FoamFile
{
    version     2.0;
    format      ascii;
    class       volScalarField;
    location    "0";
    object      epsilon;
}
// * * * * * * * * * * * * * * * * * * * * * * * * * * * * * * * * * * * * * //

dimensions      [0 2 -3 0 0 0 0];

internalField   nonuniform List<scalar> 
25800
(
22.2618
21.6165
21.4898
21.4733
21.4738
21.4866
21.5044
21.5247
21.5457
21.5669
21.5876
21.6077
21.6272
21.6459
21.6639
21.6811
21.6977
21.7136
21.7289
21.7435
21.7576
21.7712
21.7842
21.7968
21.8088
21.8205
21.8318
21.8426
21.8531
21.8633
21.8732
21.8827
21.8919
21.9009
21.9096
21.9181
21.9263
21.9343
21.9421
21.9497
21.9571
21.9644
21.9714
21.9783
21.985
21.9916
21.998
22.0043
22.0105
22.0165
22.0224
22.0282
22.0339
22.0395
22.045
22.0503
22.0556
22.0608
22.0658
22.0708
22.0757
22.0806
22.0853
22.09
22.0946
22.0991
22.1035
22.1079
22.1122
22.1164
22.1206
22.1247
22.1287
22.1327
22.1366
22.1404
22.1442
22.148
22.1516
22.1553
22.1588
22.1623
22.1658
22.1692
22.1726
22.1759
22.1792
22.1824
22.1855
22.1887
22.1917
22.1948
22.1977
22.2007
22.2036
22.2064
22.2092
22.212
22.2147
22.2174
22.22
22.2226
22.2251
22.2277
22.2301
22.2325
22.2349
22.2373
22.2396
22.2418
22.2441
22.2463
22.2484
22.2505
22.2526
22.2546
22.2565
22.2585
22.2604
22.2622
22.264
22.2658
22.2675
22.2692
22.2709
22.2725
22.274
22.2755
22.277
22.2784
22.2798
22.2811
22.2823
22.2836
22.2847
22.2858
22.2869
22.2879
22.2888
22.2897
22.2904
22.2912
22.2917
22.2924
22.2926
22.2932
22.2931
22.2938
22.2929
22.2949
8.50625
8.48014
8.46102
8.4669
8.47788
8.4914
8.50526
8.51885
8.53182
8.54409
8.55564
8.56651
8.57674
8.58639
8.5955
8.60411
8.61227
8.62001
8.62737
8.63437
8.64104
8.64741
8.6535
8.65933
8.66491
8.67026
8.67541
8.68035
8.68511
8.6897
8.69412
8.69839
8.70252
8.70651
8.71037
8.71411
8.71774
8.72127
8.72469
8.72801
8.73124
8.73439
8.73745
8.74044
8.74335
8.74619
8.74897
8.75168
8.75432
8.75691
8.75944
8.76192
8.76435
8.76672
8.76905
8.77134
8.77357
8.77577
8.77792
8.78003
8.78211
8.78415
8.78615
8.78811
8.79005
8.79194
8.79381
8.79565
8.79745
8.79923
8.80097
8.80269
8.80438
8.80604
8.80768
8.80929
8.81087
8.81243
8.81397
8.81548
8.81697
8.81844
8.81988
8.8213
8.8227
8.82408
8.82544
8.82678
8.82809
8.82939
8.83067
8.83193
8.83317
8.83438
8.83559
8.83677
8.83793
8.83908
8.84021
8.84132
8.84241
8.84348
8.84454
8.84558
8.84661
8.84761
8.8486
8.84958
8.85053
8.85147
8.85239
8.8533
8.85419
8.85506
8.85592
8.85676
8.85758
8.85839
8.85917
8.85995
8.8607
8.86144
8.86215
8.86286
8.86354
8.86421
8.86486
8.86549
8.8661
8.8667
8.86726
8.86782
8.86835
8.86887
8.86935
8.86983
8.87027
8.8707
8.87109
8.87147
8.8718
8.87214
8.87239
8.87269
8.87284
8.87308
8.87312
8.87332
8.87321
8.87361
4.68085
4.66557
4.64818
4.6451
4.64847
4.65486
4.66233
4.67008
4.6777
4.68503
4.69201
4.69863
4.70488
4.71079
4.71637
4.72166
4.72667
4.73142
4.73593
4.74023
4.74432
4.74821
4.75194
4.7555
4.7589
4.76217
4.7653
4.76831
4.7712
4.77398
4.77666
4.77924
4.78173
4.78414
4.78646
4.78872
4.7909
4.79301
4.79506
4.79705
4.79898
4.80086
4.80269
4.80447
4.8062
4.80789
4.80953
4.81114
4.8127
4.81424
4.81573
4.81719
4.81862
4.82002
4.82139
4.82273
4.82405
4.82534
4.8266
4.82784
4.82905
4.83024
4.83141
4.83256
4.83369
4.83479
4.83588
4.83695
4.838
4.83903
4.84005
4.84105
4.84203
4.84299
4.84394
4.84487
4.84579
4.8467
4.84759
4.84846
4.84933
4.85017
4.85101
4.85183
4.85264
4.85344
4.85422
4.85499
4.85575
4.8565
4.85724
4.85797
4.85868
4.85939
4.86008
4.86076
4.86143
4.86209
4.86275
4.86339
4.86402
4.86464
4.86525
4.86585
4.86644
4.86702
4.86759
4.86816
4.86871
4.86925
4.86979
4.87031
4.87083
4.87133
4.87183
4.87232
4.87279
4.87326
4.87372
4.87417
4.87461
4.87504
4.87546
4.87587
4.87627
4.87666
4.87704
4.87742
4.87777
4.87813
4.87846
4.8788
4.87911
4.87942
4.87971
4.88
4.88027
4.88053
4.88077
4.88101
4.88122
4.88143
4.88161
4.88179
4.88192
4.88208
4.88216
4.88226
4.8823
4.88241
3.109
3.07795
3.05465
3.04372
3.04046
3.04124
3.04404
3.04783
3.05204
3.05639
3.06072
3.06496
3.06906
3.073
3.07677
3.08038
3.08383
3.08713
3.09028
3.09329
3.09616
3.09891
3.10155
3.10407
3.10649
3.10881
3.11104
3.11318
3.11525
3.11723
3.11914
3.12099
3.12277
3.12449
3.12615
3.12776
3.12931
3.13082
3.13228
3.1337
3.13508
3.13641
3.13771
3.13898
3.14021
3.14141
3.14258
3.14371
3.14483
3.14591
3.14697
3.148
3.14901
3.15
3.15097
3.15191
3.15284
3.15375
3.15463
3.1555
3.15636
3.15719
3.15801
3.15882
3.15961
3.16038
3.16115
3.16189
3.16263
3.16335
3.16406
3.16476
3.16544
3.16611
3.16677
3.16743
3.16807
3.1687
3.16932
3.16992
3.17052
3.17111
3.17169
3.17227
3.17283
3.17338
3.17393
3.17446
3.17499
3.17551
3.17602
3.17653
3.17702
3.17751
3.17799
3.17847
3.17893
3.17939
3.17985
3.18029
3.18073
3.18116
3.18158
3.182
3.18241
3.18282
3.18321
3.1836
3.18399
3.18437
3.18474
3.1851
3.18546
3.18582
3.18616
3.1865
3.18684
3.18716
3.18749
3.1878
3.18811
3.18841
3.18871
3.189
3.18928
3.18956
3.18983
3.19009
3.19035
3.1906
3.19084
3.19108
3.1913
3.19153
3.19174
3.19195
3.19215
3.19234
3.19252
3.1927
3.19286
3.19302
3.19316
3.1933
3.19342
3.19355
3.19364
3.19373
3.1938
3.19385
2.28173
2.24494
2.21785
2.2017
2.19343
2.18983
2.18892
2.18957
2.19111
2.19315
2.19548
2.19795
2.20047
2.203
2.2055
2.20795
2.21034
2.21266
2.2149
2.21706
2.21915
2.22117
2.22311
2.22499
2.22679
2.22853
2.23021
2.23183
2.23339
2.2349
2.23636
2.23777
2.23913
2.24045
2.24172
2.24296
2.24415
2.24531
2.24644
2.24753
2.2486
2.24963
2.25063
2.25161
2.25256
2.25348
2.25439
2.25527
2.25612
2.25696
2.25778
2.25858
2.25936
2.26012
2.26087
2.2616
2.26231
2.26301
2.2637
2.26437
2.26502
2.26567
2.2663
2.26692
2.26753
2.26812
2.26871
2.26928
2.26985
2.2704
2.27095
2.27148
2.27201
2.27252
2.27303
2.27353
2.27402
2.27451
2.27498
2.27545
2.27591
2.27636
2.2768
2.27724
2.27767
2.2781
2.27851
2.27892
2.27933
2.27973
2.28012
2.2805
2.28088
2.28126
2.28163
2.28199
2.28235
2.2827
2.28304
2.28338
2.28372
2.28405
2.28437
2.28469
2.28501
2.28532
2.28563
2.28593
2.28622
2.28651
2.2868
2.28708
2.28735
2.28763
2.28789
2.28816
2.28841
2.28867
2.28891
2.28916
2.2894
2.28963
2.28986
2.29009
2.29031
2.29053
2.29074
2.29094
2.29114
2.29134
2.29153
2.29172
2.2919
2.29208
2.29225
2.29242
2.29258
2.29273
2.29288
2.29303
2.29316
2.2933
2.29342
2.29354
2.29365
2.29377
2.29385
2.29394
2.29402
2.29406
1.77449
1.74021
1.71285
1.6942
1.68276
1.67602
1.67229
1.67046
1.66985
1.67002
1.67071
1.67174
1.67298
1.67437
1.67583
1.67735
1.67889
1.68043
1.68196
1.68347
1.68495
1.6864
1.68781
1.68919
1.69054
1.69184
1.69311
1.69435
1.69554
1.69671
1.69783
1.69893
1.69999
1.70102
1.70202
1.703
1.70394
1.70486
1.70576
1.70663
1.70747
1.7083
1.7091
1.70988
1.71064
1.71139
1.71211
1.71282
1.71351
1.71418
1.71484
1.71548
1.71611
1.71673
1.71733
1.71792
1.7185
1.71906
1.71961
1.72016
1.72069
1.72121
1.72172
1.72222
1.72271
1.72319
1.72367
1.72413
1.72459
1.72504
1.72548
1.72591
1.72633
1.72675
1.72716
1.72757
1.72796
1.72835
1.72874
1.72911
1.72949
1.72985
1.73021
1.73056
1.73091
1.73126
1.73159
1.73193
1.73225
1.73257
1.73289
1.7332
1.73351
1.73381
1.73411
1.73441
1.73469
1.73498
1.73526
1.73554
1.73581
1.73608
1.73634
1.7366
1.73685
1.73711
1.73735
1.7376
1.73784
1.73807
1.73831
1.73854
1.73876
1.73898
1.7392
1.73941
1.73963
1.73983
1.74004
1.74024
1.74043
1.74063
1.74081
1.741
1.74118
1.74136
1.74154
1.74171
1.74187
1.74204
1.7422
1.74236
1.74251
1.74266
1.7428
1.74294
1.74308
1.74322
1.74334
1.74347
1.74359
1.74371
1.74382
1.74393
1.74403
1.74413
1.74422
1.7443
1.74438
1.74443
1.43101
1.40288
1.37787
1.35893
1.34596
1.33728
1.33157
1.3279
1.32561
1.32429
1.32364
1.32347
1.32365
1.32407
1.32467
1.3254
1.32621
1.3271
1.32802
1.32898
1.32994
1.33092
1.33189
1.33286
1.33382
1.33476
1.3357
1.33661
1.33751
1.33839
1.33924
1.34009
1.34091
1.34171
1.34249
1.34326
1.344
1.34473
1.34544
1.34614
1.34681
1.34748
1.34812
1.34875
1.34937
1.34997
1.35056
1.35114
1.3517
1.35225
1.35279
1.35332
1.35383
1.35434
1.35483
1.35532
1.35579
1.35626
1.35671
1.35716
1.3576
1.35803
1.35845
1.35887
1.35927
1.35967
1.36007
1.36045
1.36083
1.3612
1.36157
1.36193
1.36228
1.36263
1.36297
1.36331
1.36364
1.36396
1.36428
1.36459
1.3649
1.36521
1.36551
1.3658
1.36609
1.36638
1.36666
1.36694
1.36721
1.36748
1.36774
1.36801
1.36826
1.36852
1.36876
1.36901
1.36925
1.36949
1.36972
1.36996
1.37018
1.37041
1.37063
1.37085
1.37106
1.37127
1.37148
1.37169
1.37189
1.37209
1.37228
1.37247
1.37266
1.37285
1.37304
1.37322
1.37339
1.37357
1.37374
1.37391
1.37408
1.37424
1.3744
1.37456
1.37472
1.37487
1.37502
1.37517
1.37531
1.37545
1.37559
1.37573
1.37586
1.37599
1.37611
1.37624
1.37636
1.37648
1.37659
1.3767
1.37681
1.37691
1.37702
1.37711
1.37721
1.37731
1.37739
1.37748
1.37755
1.37761
1.18207
1.16094
1.13975
1.12212
1.10894
1.09934
1.09244
1.08751
1.084
1.08153
1.07983
1.0787
1.078
1.07762
1.07748
1.07754
1.07774
1.07806
1.07847
1.07894
1.07946
1.08002
1.08061
1.08121
1.08184
1.08247
1.0831
1.08374
1.08437
1.08501
1.08563
1.08625
1.08686
1.08747
1.08806
1.08865
1.08922
1.08979
1.09034
1.09089
1.09142
1.09195
1.09246
1.09296
1.09346
1.09394
1.09442
1.09489
1.09534
1.09579
1.09623
1.09666
1.09709
1.0975
1.09791
1.09831
1.0987
1.09909
1.09946
1.09984
1.1002
1.10056
1.10091
1.10126
1.1016
1.10193
1.10226
1.10258
1.1029
1.10321
1.10352
1.10382
1.10412
1.10441
1.1047
1.10498
1.10526
1.10553
1.1058
1.10607
1.10633
1.10658
1.10684
1.10709
1.10733
1.10758
1.10781
1.10805
1.10828
1.10851
1.10873
1.10895
1.10917
1.10939
1.1096
1.10981
1.11001
1.11022
1.11042
1.11061
1.11081
1.111
1.11119
1.11137
1.11156
1.11174
1.11192
1.11209
1.11227
1.11244
1.1126
1.11277
1.11293
1.11309
1.11325
1.11341
1.11356
1.11371
1.11386
1.11401
1.11415
1.11429
1.11443
1.11457
1.11471
1.11484
1.11497
1.1151
1.11522
1.11535
1.11547
1.11559
1.11571
1.11582
1.11593
1.11604
1.11615
1.11626
1.11636
1.11646
1.11656
1.11665
1.11674
1.11684
1.11692
1.11701
1.11709
1.11718
1.11725
1.11731
0.993035
0.978193
0.961352
0.94601
0.933585
0.9239
0.916481
0.910827
0.906523
0.90325
0.900765
0.89889
0.897489
0.896459
0.895722
0.895219
0.894903
0.894737
0.894692
0.894745
0.894877
0.895074
0.895322
0.895613
0.895937
0.896288
0.89666
0.897049
0.89745
0.897861
0.898279
0.898701
0.899126
0.899551
0.899977
0.900401
0.900823
0.901242
0.901657
0.902069
0.902475
0.902877
0.903274
0.903666
0.904053
0.904434
0.904809
0.905179
0.905543
0.905902
0.906255
0.906602
0.906944
0.907281
0.907613
0.907939
0.90826
0.908575
0.908886
0.909192
0.909493
0.909789
0.910081
0.910368
0.910651
0.910929
0.911203
0.911472
0.911738
0.911999
0.912256
0.91251
0.912759
0.913005
0.913247
0.913486
0.913721
0.913952
0.91418
0.914405
0.914627
0.914845
0.91506
0.915272
0.915481
0.915687
0.91589
0.91609
0.916288
0.916482
0.916674
0.916863
0.91705
0.917234
0.917415
0.917594
0.917771
0.917945
0.918116
0.918286
0.918453
0.918617
0.91878
0.91894
0.919098
0.919254
0.919408
0.919559
0.919709
0.919856
0.920002
0.920145
0.920287
0.920426
0.920564
0.920699
0.920833
0.920964
0.921094
0.921222
0.921348
0.921472
0.921595
0.921715
0.921834
0.921951
0.922066
0.922179
0.92229
0.922399
0.922507
0.922613
0.922717
0.922819
0.922919
0.923018
0.923114
0.923209
0.923302
0.923393
0.923482
0.923569
0.923654
0.923738
0.923819
0.923901
0.923978
0.924059
0.924127
0.924189
0.844693
0.834819
0.822169
0.809565
0.798544
0.789406
0.78202
0.776105
0.771382
0.767611
0.764599
0.762192
0.760269
0.758738
0.757523
0.756567
0.755824
0.755255
0.754832
0.754529
0.754326
0.754208
0.75416
0.754171
0.754232
0.754335
0.754472
0.75464
0.754831
0.755044
0.755273
0.755517
0.755772
0.756036
0.756308
0.756586
0.756868
0.757154
0.757442
0.757732
0.758022
0.758312
0.758602
0.758891
0.759179
0.759465
0.759749
0.760031
0.760311
0.760588
0.760862
0.761134
0.761402
0.761668
0.761931
0.76219
0.762446
0.7627
0.76295
0.763197
0.76344
0.763681
0.763919
0.764153
0.764384
0.764613
0.764838
0.76506
0.76528
0.765496
0.765709
0.76592
0.766128
0.766333
0.766535
0.766735
0.766931
0.767126
0.767317
0.767506
0.767693
0.767877
0.768059
0.768238
0.768415
0.768589
0.768762
0.768932
0.7691
0.769265
0.769429
0.76959
0.769749
0.769906
0.770061
0.770214
0.770366
0.770515
0.770662
0.770807
0.770951
0.771093
0.771232
0.771371
0.771507
0.771641
0.771774
0.771905
0.772035
0.772162
0.772288
0.772413
0.772536
0.772657
0.772777
0.772895
0.773011
0.773126
0.773239
0.773351
0.773462
0.77357
0.773678
0.773784
0.773888
0.773991
0.774092
0.774192
0.774291
0.774388
0.774483
0.774577
0.77467
0.774761
0.77485
0.774939
0.775025
0.77511
0.775194
0.775277
0.775357
0.775437
0.775515
0.775591
0.775667
0.775742
0.775814
0.775889
0.775954
0.776015
0.725457
0.719196
0.710168
0.700339
0.691077
0.682922
0.675991
0.670193
0.665378
0.661387
0.65808
0.655338
0.653062
0.651172
0.649601
0.648298
0.647218
0.646327
0.645595
0.644997
0.644514
0.644129
0.643827
0.643598
0.64343
0.643315
0.643247
0.643218
0.643223
0.643258
0.643318
0.643401
0.643503
0.643621
0.643753
0.643898
0.644052
0.644216
0.644388
0.644565
0.644749
0.644936
0.645128
0.645322
0.645519
0.645717
0.645917
0.646117
0.646319
0.64652
0.646722
0.646923
0.647123
0.647323
0.647522
0.64772
0.647917
0.648112
0.648306
0.648498
0.648689
0.648879
0.649066
0.649252
0.649437
0.649619
0.6498
0.649979
0.650156
0.650331
0.650504
0.650675
0.650845
0.651013
0.651179
0.651342
0.651505
0.651665
0.651823
0.65198
0.652135
0.652288
0.652439
0.652589
0.652737
0.652883
0.653027
0.65317
0.653311
0.653451
0.653588
0.653725
0.653859
0.653992
0.654124
0.654253
0.654382
0.654509
0.654634
0.654758
0.65488
0.655001
0.655121
0.655239
0.655356
0.655471
0.655586
0.655698
0.65581
0.65592
0.656028
0.656136
0.656242
0.656347
0.65645
0.656553
0.656654
0.656754
0.656852
0.65695
0.657046
0.657141
0.657235
0.657327
0.657419
0.657509
0.657598
0.657686
0.657773
0.657858
0.657943
0.658026
0.658108
0.658189
0.658269
0.658347
0.658425
0.658501
0.658576
0.65865
0.658723
0.658795
0.658866
0.658936
0.659004
0.659073
0.65914
0.659208
0.659269
0.659328
0.62787
0.624065
0.617927
0.610628
0.603224
0.596303
0.590123
0.584734
0.580093
0.576119
0.572725
0.569828
0.567354
0.56524
0.563431
0.561882
0.560556
0.55942
0.558448
0.557616
0.556907
0.556304
0.555792
0.555361
0.555
0.554699
0.554453
0.554254
0.554096
0.553975
0.553886
0.553826
0.55379
0.553777
0.553784
0.553808
0.553847
0.5539
0.553965
0.55404
0.554125
0.554219
0.554319
0.554426
0.554538
0.554656
0.554777
0.554902
0.555031
0.555162
0.555296
0.555431
0.555568
0.555707
0.555846
0.555986
0.556127
0.556269
0.55641
0.556552
0.556693
0.556835
0.556976
0.557116
0.557257
0.557396
0.557535
0.557673
0.557811
0.557948
0.558083
0.558218
0.558352
0.558485
0.558617
0.558747
0.558877
0.559006
0.559134
0.55926
0.559385
0.55951
0.559633
0.559755
0.559876
0.559995
0.560114
0.560231
0.560348
0.560463
0.560577
0.56069
0.560801
0.560912
0.561022
0.56113
0.561237
0.561344
0.561449
0.561553
0.561656
0.561758
0.561859
0.561958
0.562057
0.562155
0.562252
0.562347
0.562442
0.562536
0.562628
0.56272
0.562811
0.562901
0.562989
0.563077
0.563164
0.56325
0.563335
0.563419
0.563502
0.563584
0.563665
0.563746
0.563825
0.563903
0.563981
0.564058
0.564133
0.564208
0.564282
0.564355
0.564427
0.564498
0.564569
0.564638
0.564707
0.564774
0.564841
0.564907
0.564972
0.565037
0.5651
0.565163
0.565225
0.565287
0.565347
0.565409
0.565465
0.565521
0.546867
0.544632
0.540652
0.535483
0.529841
0.524241
0.518986
0.514209
0.509947
0.506183
0.502878
0.499983
0.497451
0.495236
0.493298
0.4916
0.490113
0.488809
0.487665
0.486661
0.48578
0.485007
0.484329
0.483735
0.483216
0.482762
0.482368
0.482025
0.481728
0.481473
0.481255
0.48107
0.480915
0.480786
0.480682
0.480599
0.480535
0.480488
0.480457
0.48044
0.480436
0.480443
0.480461
0.480488
0.480523
0.480565
0.480615
0.48067
0.480732
0.480798
0.480868
0.480942
0.48102
0.481102
0.481186
0.481272
0.481361
0.481451
0.481544
0.481638
0.481733
0.481829
0.481927
0.482025
0.482123
0.482223
0.482322
0.482422
0.482522
0.482623
0.482723
0.482823
0.482924
0.483024
0.483123
0.483223
0.483322
0.483421
0.48352
0.483618
0.483715
0.483812
0.483909
0.484005
0.4841
0.484195
0.484289
0.484382
0.484475
0.484568
0.484659
0.48475
0.48484
0.48493
0.485019
0.485107
0.485194
0.485281
0.485367
0.485453
0.485537
0.485621
0.485705
0.485787
0.485869
0.48595
0.48603
0.48611
0.486189
0.486267
0.486345
0.486422
0.486498
0.486573
0.486648
0.486722
0.486795
0.486868
0.48694
0.487011
0.487082
0.487152
0.487221
0.487289
0.487357
0.487424
0.487491
0.487557
0.487622
0.487686
0.48775
0.487813
0.487876
0.487938
0.487999
0.488059
0.488119
0.488178
0.488237
0.488295
0.488352
0.488409
0.488465
0.48852
0.488576
0.488631
0.488685
0.48874
0.48879
0.488841
0.478852
0.477578
0.475107
0.471614
0.467513
0.463188
0.458919
0.454871
0.451128
0.447719
0.444643
0.441882
0.439413
0.437207
0.435239
0.433483
0.431915
0.430515
0.429265
0.428147
0.427147
0.426252
0.425451
0.424735
0.424093
0.423519
0.423006
0.422546
0.422136
0.42177
0.421444
0.421154
0.420897
0.420669
0.420468
0.420292
0.420138
0.420004
0.419888
0.419789
0.419705
0.419636
0.419579
0.419533
0.419499
0.419474
0.419457
0.419449
0.419449
0.419455
0.419467
0.419486
0.419509
0.419537
0.41957
0.419606
0.419646
0.41969
0.419736
0.419786
0.419837
0.419891
0.419948
0.420006
0.420065
0.420127
0.420189
0.420253
0.420318
0.420384
0.420451
0.420519
0.420588
0.420656
0.420726
0.420796
0.420866
0.420937
0.421008
0.421079
0.42115
0.421221
0.421292
0.421363
0.421434
0.421506
0.421577
0.421647
0.421718
0.421789
0.421859
0.421929
0.421999
0.422068
0.422137
0.422206
0.422275
0.422343
0.422411
0.422479
0.422546
0.422613
0.422679
0.422745
0.422811
0.422876
0.422941
0.423005
0.423069
0.423132
0.423195
0.423258
0.42332
0.423382
0.423443
0.423504
0.423564
0.423624
0.423684
0.423743
0.423801
0.42386
0.423917
0.423974
0.424031
0.424087
0.424143
0.424198
0.424253
0.424308
0.424362
0.424415
0.424468
0.424521
0.424573
0.424624
0.424675
0.424726
0.424776
0.424826
0.424876
0.424925
0.424974
0.425022
0.42507
0.425118
0.425165
0.425213
0.425258
0.425303
0.421192
0.420483
0.419006
0.416754
0.41391
0.410721
0.407408
0.404127
0.400979
0.398021
0.395276
0.392752
0.390444
0.388341
0.386429
0.384693
0.383119
0.38169
0.380394
0.379218
0.37815
0.37718
0.376299
0.375499
0.374771
0.374109
0.373506
0.372959
0.37246
0.372007
0.371594
0.371219
0.370878
0.370569
0.370288
0.370033
0.369802
0.369593
0.369405
0.369235
0.369082
0.368945
0.368823
0.368713
0.368617
0.368531
0.368456
0.368391
0.368335
0.368287
0.368247
0.368214
0.368188
0.368168
0.368153
0.368144
0.368139
0.368139
0.368143
0.368151
0.368163
0.368177
0.368195
0.368216
0.36824
0.368265
0.368293
0.368324
0.368356
0.36839
0.368425
0.368462
0.368501
0.36854
0.368581
0.368623
0.368666
0.36871
0.368754
0.3688
0.368846
0.368893
0.36894
0.368988
0.369036
0.369084
0.369133
0.369183
0.369232
0.369282
0.369332
0.369382
0.369432
0.369482
0.369533
0.369583
0.369634
0.369684
0.369735
0.369785
0.369836
0.369886
0.369936
0.369986
0.370037
0.370086
0.370136
0.370186
0.370235
0.370285
0.370334
0.370383
0.370431
0.37048
0.370528
0.370576
0.370624
0.370672
0.370719
0.370766
0.370813
0.37086
0.370906
0.370952
0.370998
0.371044
0.371089
0.371134
0.371179
0.371224
0.371268
0.371312
0.371356
0.371399
0.371442
0.371485
0.371528
0.37157
0.371612
0.371654
0.371695
0.371737
0.371778
0.371819
0.371859
0.3719
0.371941
0.371981
0.37202
0.372059
0.371911
0.371519
0.370671
0.369282
0.3674
0.365156
0.362699
0.360156
0.357622
0.35516
0.352809
0.350593
0.348521
0.346595
0.344811
0.343164
0.341645
0.340248
0.338961
0.337778
0.33669
0.33569
0.334769
0.333922
0.333143
0.332425
0.331764
0.331155
0.330594
0.330076
0.329599
0.32916
0.328754
0.32838
0.328035
0.327718
0.327424
0.327154
0.326905
0.326676
0.326465
0.326271
0.326093
0.325929
0.325778
0.325641
0.325515
0.325399
0.325294
0.325199
0.325112
0.325033
0.324962
0.324899
0.324842
0.324791
0.324746
0.324706
0.324672
0.324642
0.324617
0.324596
0.324579
0.324565
0.324555
0.324548
0.324544
0.324543
0.324544
0.324548
0.324555
0.324563
0.324573
0.324586
0.3246
0.324615
0.324633
0.324651
0.324671
0.324693
0.324715
0.324739
0.324763
0.324789
0.324815
0.324842
0.32487
0.324899
0.324929
0.324959
0.324989
0.32502
0.325052
0.325084
0.325117
0.32515
0.325183
0.325216
0.32525
0.325284
0.325319
0.325353
0.325388
0.325423
0.325458
0.325493
0.325529
0.325564
0.3256
0.325635
0.325671
0.325707
0.325743
0.325778
0.325814
0.32585
0.325886
0.325921
0.325957
0.325993
0.326028
0.326064
0.326099
0.326135
0.32617
0.326205
0.32624
0.326275
0.32631
0.326345
0.32638
0.326415
0.326449
0.326483
0.326518
0.326552
0.326586
0.32662
0.326654
0.326687
0.326721
0.326755
0.326788
0.326822
0.326855
0.326889
0.326922
0.326956
0.326987
0.32702
0.329493
0.329274
0.328807
0.327982
0.326794
0.325289
0.323551
0.321667
0.319714
0.317751
0.315821
0.313952
0.312164
0.310466
0.308865
0.30736
0.305951
0.304634
0.303406
0.302262
0.301197
0.300205
0.299283
0.298425
0.297626
0.296883
0.296192
0.295549
0.29495
0.294392
0.293872
0.293389
0.292938
0.292517
0.292125
0.29176
0.291419
0.291102
0.290805
0.290529
0.290271
0.29003
0.289806
0.289597
0.289402
0.289221
0.289051
0.288894
0.288747
0.28861
0.288483
0.288365
0.288255
0.288153
0.288059
0.287972
0.287891
0.287816
0.287747
0.287684
0.287626
0.287572
0.287523
0.287479
0.287438
0.287402
0.287368
0.287339
0.287312
0.287289
0.287268
0.28725
0.287235
0.287222
0.287211
0.287202
0.287196
0.287191
0.287188
0.287187
0.287187
0.287189
0.287193
0.287197
0.287203
0.287211
0.287219
0.287229
0.287239
0.28725
0.287263
0.287276
0.28729
0.287305
0.28732
0.287337
0.287353
0.287371
0.287389
0.287408
0.287427
0.287446
0.287466
0.287487
0.287508
0.287529
0.28755
0.287572
0.287595
0.287617
0.28764
0.287663
0.287686
0.28771
0.287733
0.287757
0.287781
0.287806
0.28783
0.287854
0.287879
0.287904
0.287929
0.287954
0.287979
0.288004
0.288029
0.288054
0.28808
0.288105
0.28813
0.288156
0.288181
0.288207
0.288233
0.288258
0.288284
0.288309
0.288335
0.288361
0.288387
0.288412
0.288438
0.288464
0.28849
0.288517
0.288543
0.288569
0.288594
0.28862
0.292759
0.292631
0.292382
0.291913
0.291195
0.290233
0.289061
0.28773
0.286292
0.284794
0.283275
0.281763
0.28028
0.278842
0.277457
0.276133
0.274873
0.273678
0.272547
0.27148
0.270474
0.269527
0.268636
0.267799
0.267012
0.266273
0.265578
0.264926
0.264313
0.263737
0.263196
0.262688
0.26221
0.261761
0.261339
0.260942
0.260569
0.260217
0.259887
0.259575
0.259283
0.259007
0.258747
0.258503
0.258273
0.258056
0.257852
0.25766
0.257479
0.257308
0.257148
0.256996
0.256854
0.25672
0.256594
0.256475
0.256364
0.256259
0.25616
0.256067
0.25598
0.255898
0.255821
0.255749
0.255682
0.255619
0.25556
0.255504
0.255453
0.255404
0.25536
0.255318
0.255279
0.255243
0.25521
0.255179
0.255151
0.255124
0.255101
0.255079
0.255059
0.255041
0.255025
0.25501
0.254997
0.254986
0.254976
0.254968
0.254961
0.254955
0.25495
0.254946
0.254944
0.254943
0.254942
0.254943
0.254944
0.254947
0.25495
0.254954
0.254958
0.254964
0.25497
0.254976
0.254984
0.254992
0.255
0.255009
0.255019
0.255029
0.255039
0.25505
0.255062
0.255073
0.255086
0.255098
0.255111
0.255124
0.255138
0.255151
0.255166
0.25518
0.255195
0.25521
0.255225
0.25524
0.255256
0.255271
0.255287
0.255304
0.25532
0.255337
0.255353
0.25537
0.255387
0.255404
0.255422
0.255439
0.255457
0.255475
0.255493
0.255511
0.255529
0.255548
0.255567
0.255586
0.255605
0.255624
0.255642
0.255661
0.260777
0.260697
0.260567
0.26031
0.259896
0.259309
0.258556
0.257659
0.25665
0.255558
0.254414
0.253242
0.252063
0.250892
0.249741
0.24862
0.247534
0.246488
0.245484
0.244523
0.243607
0.242733
0.241903
0.241114
0.240365
0.239654
0.238981
0.238343
0.237738
0.237166
0.236623
0.23611
0.235623
0.235163
0.234726
0.234313
0.233921
0.23355
0.233198
0.232865
0.232549
0.232249
0.231965
0.231695
0.23144
0.231197
0.230967
0.230748
0.230541
0.230344
0.230157
0.22998
0.229811
0.229651
0.229499
0.229355
0.229218
0.229087
0.228964
0.228846
0.228735
0.228629
0.228528
0.228433
0.228342
0.228256
0.228174
0.228097
0.228023
0.227953
0.227887
0.227824
0.227765
0.227708
0.227655
0.227604
0.227556
0.227511
0.227468
0.227428
0.22739
0.227354
0.22732
0.227288
0.227258
0.22723
0.227203
0.227178
0.227155
0.227133
0.227113
0.227094
0.227076
0.22706
0.227045
0.227031
0.227018
0.227006
0.226995
0.226986
0.226977
0.226969
0.226962
0.226956
0.226951
0.226946
0.226942
0.226939
0.226937
0.226935
0.226934
0.226934
0.226934
0.226934
0.226936
0.226937
0.22694
0.226942
0.226945
0.226949
0.226953
0.226958
0.226963
0.226968
0.226974
0.22698
0.226986
0.226993
0.227
0.227007
0.227015
0.227023
0.227031
0.227039
0.227048
0.227057
0.227067
0.227076
0.227086
0.227096
0.227107
0.227117
0.227128
0.22714
0.227151
0.227163
0.227175
0.227188
0.227199
0.227211
0.232802
0.232746
0.232678
0.232543
0.232314
0.231973
0.231512
0.230937
0.230262
0.229503
0.228681
0.227812
0.226914
0.226
0.225082
0.224169
0.223269
0.222387
0.221528
0.220694
0.219888
0.21911
0.218362
0.217643
0.216954
0.216294
0.215663
0.215059
0.214483
0.213932
0.213407
0.212906
0.212427
0.211971
0.211536
0.211121
0.210725
0.210347
0.209987
0.209644
0.209316
0.209004
0.208705
0.208421
0.208149
0.20789
0.207642
0.207406
0.20718
0.206964
0.206758
0.206562
0.206374
0.206194
0.206022
0.205858
0.205701
0.205551
0.205408
0.205271
0.20514
0.205014
0.204894
0.204779
0.204669
0.204564
0.204463
0.204367
0.204275
0.204187
0.204103
0.204022
0.203945
0.203871
0.2038
0.203732
0.203667
0.203605
0.203546
0.203489
0.203435
0.203383
0.203333
0.203286
0.203241
0.203197
0.203156
0.203116
0.203078
0.203042
0.203008
0.202975
0.202943
0.202914
0.202885
0.202858
0.202832
0.202807
0.202784
0.202762
0.202741
0.202721
0.202702
0.202684
0.202667
0.202651
0.202636
0.202621
0.202608
0.202595
0.202583
0.202572
0.202562
0.202552
0.202543
0.202535
0.202527
0.20252
0.202513
0.202508
0.202502
0.202497
0.202493
0.202489
0.202486
0.202483
0.202481
0.202479
0.202477
0.202476
0.202476
0.202476
0.202476
0.202476
0.202477
0.202479
0.20248
0.202482
0.202485
0.202487
0.20249
0.202494
0.202498
0.202502
0.202507
0.202512
0.202517
0.202522
0.202528
0.202533
0.208231
0.208188
0.20815
0.208081
0.20796
0.207771
0.207503
0.207153
0.206723
0.206221
0.205657
0.205043
0.204389
0.203707
0.203005
0.202293
0.201576
0.200862
0.200154
0.199457
0.198773
0.198105
0.197454
0.196822
0.196209
0.195617
0.195044
0.194492
0.19396
0.193448
0.192955
0.192481
0.192026
0.191589
0.191169
0.190765
0.190378
0.190007
0.189651
0.189309
0.188981
0.188666
0.188364
0.188074
0.187796
0.187529
0.187273
0.187027
0.186791
0.186564
0.186347
0.186138
0.185937
0.185744
0.185559
0.185381
0.18521
0.185046
0.184888
0.184737
0.184591
0.18445
0.184315
0.184186
0.184061
0.183941
0.183825
0.183714
0.183607
0.183504
0.183405
0.183309
0.183218
0.183129
0.183044
0.182962
0.182883
0.182807
0.182733
0.182663
0.182595
0.182529
0.182466
0.182405
0.182347
0.18229
0.182236
0.182183
0.182133
0.182084
0.182037
0.181992
0.181949
0.181907
0.181866
0.181827
0.18179
0.181754
0.181719
0.181686
0.181654
0.181623
0.181593
0.181564
0.181537
0.18151
0.181485
0.18146
0.181437
0.181414
0.181392
0.181372
0.181352
0.181332
0.181314
0.181296
0.181279
0.181263
0.181248
0.181233
0.181219
0.181206
0.181193
0.181181
0.181169
0.181158
0.181147
0.181137
0.181128
0.181119
0.181111
0.181103
0.181095
0.181088
0.181082
0.181076
0.18107
0.181065
0.18106
0.181056
0.181052
0.181049
0.181046
0.181043
0.181041
0.18104
0.181038
0.181038
0.181036
0.181036
0.186571
0.186536
0.186512
0.186476
0.186415
0.186315
0.186167
0.185964
0.185705
0.18539
0.185022
0.184609
0.184156
0.183669
0.183157
0.182624
0.182078
0.181523
0.180963
0.180402
0.179844
0.179291
0.178746
0.17821
0.177684
0.17717
0.176668
0.17618
0.175705
0.175244
0.174796
0.174363
0.173943
0.173537
0.173144
0.172765
0.172398
0.172044
0.171703
0.171373
0.171055
0.170748
0.170451
0.170166
0.16989
0.169624
0.169368
0.169121
0.168882
0.168652
0.16843
0.168216
0.16801
0.16781
0.167618
0.167432
0.167253
0.16708
0.166914
0.166752
0.166597
0.166447
0.166302
0.166161
0.166026
0.165895
0.165769
0.165647
0.165528
0.165414
0.165304
0.165197
0.165094
0.164994
0.164898
0.164804
0.164714
0.164627
0.164542
0.16446
0.164381
0.164304
0.16423
0.164158
0.164089
0.164021
0.163956
0.163893
0.163832
0.163772
0.163715
0.163659
0.163606
0.163553
0.163503
0.163454
0.163406
0.16336
0.163316
0.163273
0.163231
0.16319
0.163151
0.163113
0.163076
0.16304
0.163006
0.162972
0.16294
0.162908
0.162878
0.162848
0.162819
0.162792
0.162765
0.162739
0.162714
0.162689
0.162666
0.162643
0.162621
0.1626
0.162579
0.162559
0.16254
0.162521
0.162503
0.162486
0.162469
0.162453
0.162438
0.162423
0.162408
0.162394
0.162381
0.162368
0.162356
0.162344
0.162333
0.162322
0.162312
0.162302
0.162292
0.162284
0.162275
0.162267
0.16226
0.162253
0.162246
0.16224
0.167415
0.167386
0.167368
0.167349
0.167319
0.167268
0.16719
0.167079
0.166931
0.166743
0.166516
0.166252
0.165953
0.165623
0.165267
0.164887
0.164489
0.164076
0.163652
0.16322
0.162783
0.162343
0.161904
0.161466
0.161031
0.160601
0.160177
0.15976
0.15935
0.158949
0.158556
0.158172
0.157798
0.157433
0.157077
0.156731
0.156395
0.156068
0.15575
0.155442
0.155143
0.154852
0.15457
0.154297
0.154033
0.153776
0.153527
0.153286
0.153052
0.152826
0.152607
0.152394
0.152188
0.151989
0.151795
0.151608
0.151426
0.15125
0.15108
0.150915
0.150754
0.150599
0.150448
0.150303
0.150161
0.150024
0.149891
0.149762
0.149636
0.149515
0.149397
0.149282
0.149171
0.149064
0.148959
0.148858
0.148759
0.148663
0.14857
0.14848
0.148392
0.148307
0.148224
0.148144
0.148066
0.14799
0.147916
0.147844
0.147774
0.147706
0.147641
0.147576
0.147514
0.147453
0.147394
0.147337
0.147281
0.147227
0.147174
0.147123
0.147073
0.147024
0.146977
0.146931
0.146886
0.146842
0.1468
0.146759
0.146718
0.146679
0.146641
0.146604
0.146568
0.146533