/*--------------------------------*- C++ -*----------------------------------*\
| =========                 |                                                 |
| \\      /  F ield         | OpenFOAM: The Open Source CFD Toolbox           |
|  \\    /   O peration     | Version:  5.x                                   |
|   \\  /    A nd           | Web:      www.OpenFOAM.org                      |
|    \\/     M anipulation  |                                                 |
\*---------------------------------------------------------------------------*/
FoamFile
{
    version     2.0;
    format      ascii;
    class       volScalarField;
    location    "0";
    object      k;
}
// * * * * * * * * * * * * * * * * * * * * * * * * * * * * * * * * * * * * * //

dimensions      [0 2 -2 0 0 0 0];

internalField   nonuniform List<scalar> 
25800
(
1.25533
1.23095
1.22614
1.22551
1.22553
1.22602
1.22669
1.22747
1.22827
1.22907
1.22986
1.23062
1.23136
1.23207
1.23275
1.23341
1.23404
1.23464
1.23522
1.23577
1.23631
1.23682
1.23731
1.23779
1.23825
1.23869
1.23911
1.23952
1.23992
1.24031
1.24068
1.24104
1.24139
1.24173
1.24206
1.24238
1.24269
1.24299
1.24329
1.24357
1.24385
1.24413
1.24439
1.24465
1.24491
1.24515
1.2454
1.24563
1.24587
1.24609
1.24632
1.24654
1.24675
1.24696
1.24717
1.24737
1.24757
1.24776
1.24795
1.24814
1.24833
1.24851
1.24869
1.24886
1.24904
1.24921
1.24937
1.24954
1.2497
1.24986
1.25002
1.25017
1.25032
1.25047
1.25062
1.25076
1.25091
1.25105
1.25119
1.25132
1.25146
1.25159
1.25172
1.25185
1.25197
1.2521
1.25222
1.25234
1.25246
1.25258
1.2527
1.25281
1.25292
1.25303
1.25314
1.25325
1.25335
1.25346
1.25356
1.25366
1.25376
1.25386
1.25395
1.25405
1.25414
1.25423
1.25432
1.25441
1.25449
1.25458
1.25466
1.25475
1.25483
1.25491
1.25498
1.25506
1.25513
1.25521
1.25528
1.25535
1.25541
1.25548
1.25555
1.25561
1.25567
1.25573
1.25579
1.25585
1.2559
1.25595
1.256
1.25605
1.2561
1.25615
1.25619
1.25623
1.25627
1.25631
1.25634
1.25638
1.2564
1.25643
1.25645
1.25648
1.25649
1.25651
1.2565
1.25653
1.2565
1.25657
1.34296
1.32692
1.32004
1.31726
1.31617
1.31599
1.31624
1.31673
1.31733
1.318
1.3187
1.3194
1.32009
1.32077
1.32144
1.32209
1.32272
1.32333
1.32392
1.32449
1.32504
1.32557
1.32608
1.32658
1.32706
1.32752
1.32797
1.3284
1.32883
1.32923
1.32963
1.33001
1.33038
1.33075
1.3311
1.33144
1.33177
1.3321
1.33241
1.33272
1.33302
1.33331
1.3336
1.33388
1.33415
1.33442
1.33468
1.33493
1.33518
1.33543
1.33567
1.3359
1.33613
1.33636
1.33658
1.3368
1.33701
1.33722
1.33743
1.33763
1.33783
1.33802
1.33821
1.3384
1.33859
1.33877
1.33895
1.33913
1.3393
1.33947
1.33964
1.33981
1.33997
1.34013
1.34029
1.34045
1.3406
1.34075
1.3409
1.34105
1.34119
1.34134
1.34148
1.34161
1.34175
1.34189
1.34202
1.34215
1.34228
1.3424
1.34253
1.34265
1.34277
1.34289
1.34301
1.34313
1.34324
1.34335
1.34346
1.34357
1.34368
1.34378
1.34389
1.34399
1.34409
1.34419
1.34429
1.34438
1.34448
1.34457
1.34466
1.34475
1.34484
1.34493
1.34501
1.34509
1.34518
1.34526
1.34533
1.34541
1.34549
1.34556
1.34563
1.3457
1.34577
1.34584
1.3459
1.34597
1.34603
1.34609
1.34615
1.3462
1.34626
1.34631
1.34636
1.34641
1.34646
1.3465
1.34654
1.34658
1.34662
1.34666
1.34669
1.34672
1.34674
1.34677
1.34678
1.3468
1.3468
1.34683
1.32918
1.30453
1.29201
1.28544
1.28184
1.27985
1.27878
1.27824
1.27803
1.27804
1.27818
1.27842
1.27872
1.27906
1.27943
1.27982
1.28022
1.28063
1.28103
1.28144
1.28184
1.28224
1.28263
1.28301
1.28339
1.28376
1.28412
1.28447
1.28482
1.28516
1.28549
1.28581
1.28613
1.28644
1.28674
1.28703
1.28732
1.2876
1.28788
1.28815
1.28841
1.28867
1.28892
1.28917
1.28941
1.28965
1.28989
1.29011
1.29034
1.29056
1.29078
1.29099
1.2912
1.2914
1.2916
1.2918
1.292
1.29219
1.29237
1.29256
1.29274
1.29292
1.2931
1.29327
1.29344
1.29361
1.29378
1.29394
1.2941
1.29426
1.29441
1.29457
1.29472
1.29487
1.29501
1.29516
1.2953
1.29544
1.29558
1.29572
1.29585
1.29599
1.29612
1.29625
1.29637
1.2965
1.29662
1.29674
1.29686
1.29698
1.2971
1.29721
1.29733
1.29744
1.29755
1.29766
1.29777
1.29787
1.29798
1.29808
1.29818
1.29828
1.29838
1.29847
1.29857
1.29866
1.29875
1.29885
1.29893
1.29902
1.29911
1.29919
1.29928
1.29936
1.29944
1.29952
1.2996
1.29968
1.29975
1.29982
1.2999
1.29997
1.30004
1.3001
1.30017
1.30024
1.3003
1.30036
1.30042
1.30048
1.30054
1.30059
1.30065
1.3007
1.30075
1.3008
1.30085
1.30089
1.30093
1.30098
1.30102
1.30105
1.30109
1.30112
1.30115
1.30118
1.3012
1.30122
1.30124
1.30126
1.33286
1.30463
1.28825
1.27844
1.27243
1.26862
1.26612
1.26446
1.26334
1.26259
1.26211
1.26181
1.26165
1.2616
1.26162
1.2617
1.26183
1.26199
1.26218
1.26239
1.26262
1.26285
1.2631
1.26335
1.2636
1.26386
1.26412
1.26438
1.26463
1.26489
1.26514
1.2654
1.26564
1.26589
1.26613
1.26637
1.26661
1.26684
1.26707
1.2673
1.26752
1.26774
1.26795
1.26817
1.26838
1.26858
1.26878
1.26898
1.26918
1.26937
1.26956
1.26975
1.26994
1.27012
1.2703
1.27047
1.27065
1.27082
1.27099
1.27116
1.27132
1.27148
1.27164
1.2718
1.27195
1.27211
1.27226
1.27241
1.27255
1.2727
1.27284
1.27298
1.27312
1.27326
1.27339
1.27353
1.27366
1.27379
1.27392
1.27404
1.27417
1.27429
1.27441
1.27453
1.27465
1.27477
1.27488
1.275
1.27511
1.27522
1.27533
1.27544
1.27554
1.27565
1.27575
1.27585
1.27595
1.27605
1.27615
1.27625
1.27634
1.27643
1.27653
1.27662
1.27671
1.2768
1.27688
1.27697
1.27705
1.27714
1.27722
1.2773
1.27738
1.27746
1.27753
1.27761
1.27768
1.27776
1.27783
1.2779
1.27797
1.27804
1.2781
1.27817
1.27823
1.2783
1.27836
1.27842
1.27848
1.27853
1.27859
1.27864
1.2787
1.27875
1.2788
1.27885
1.27889
1.27894
1.27898
1.27903
1.27907
1.2791
1.27914
1.27918
1.27921
1.27924
1.27927
1.27929
1.27931
1.27933
1.34098
1.31298
1.29447
1.28223
1.27412
1.26857
1.26466
1.26183
1.25974
1.25818
1.257
1.2561
1.25542
1.25491
1.25453
1.25425
1.25406
1.25394
1.25387
1.25385
1.25386
1.25391
1.25397
1.25406
1.25417
1.25429
1.25442
1.25456
1.25471
1.25486
1.25502
1.25519
1.25535
1.25552
1.25569
1.25586
1.25604
1.25621
1.25638
1.25655
1.25672
1.25689
1.25706
1.25723
1.2574
1.25756
1.25773
1.25789
1.25805
1.25821
1.25837
1.25853
1.25869
1.25884
1.25899
1.25914
1.25929
1.25944
1.25959
1.25973
1.25987
1.26001
1.26015
1.26029
1.26043
1.26056
1.2607
1.26083
1.26096
1.26109
1.26121
1.26134
1.26146
1.26159
1.26171
1.26183
1.26195
1.26206
1.26218
1.26229
1.26241
1.26252
1.26263
1.26274
1.26285
1.26295
1.26306
1.26316
1.26326
1.26336
1.26346
1.26356
1.26366
1.26376
1.26385
1.26395
1.26404
1.26413
1.26422
1.26431
1.2644
1.26448
1.26457
1.26465
1.26474
1.26482
1.2649
1.26498
1.26506
1.26514
1.26521
1.26529
1.26536
1.26544
1.26551
1.26558
1.26565
1.26572
1.26579
1.26585
1.26592
1.26598
1.26605
1.26611
1.26617
1.26623
1.26629
1.26634
1.2664
1.26645
1.26651
1.26656
1.26661
1.26666
1.26671
1.26676
1.2668
1.26685
1.26689
1.26693
1.26697
1.26701
1.26705
1.26708
1.26711
1.26715
1.26718
1.26721
1.26723
1.26725
1.34906
1.32377
1.30479
1.29105
1.28134
1.27431
1.26911
1.26516
1.26211
1.25971
1.25781
1.25628
1.25504
1.25403
1.25321
1.25254
1.25199
1.25154
1.25118
1.25089
1.25066
1.25049
1.25035
1.25025
1.25018
1.25014
1.25012
1.25012
1.25014
1.25018
1.25022
1.25028
1.25035
1.25042
1.2505
1.25059
1.25068
1.25078
1.25089
1.25099
1.2511
1.25121
1.25132
1.25144
1.25155
1.25167
1.25179
1.25191
1.25203
1.25214
1.25226
1.25238
1.2525
1.25262
1.25274
1.25286
1.25298
1.2531
1.25321
1.25333
1.25345
1.25356
1.25368
1.25379
1.25391
1.25402
1.25413
1.25424
1.25435
1.25446
1.25457
1.25468
1.25478
1.25489
1.25499
1.25509
1.2552
1.2553
1.2554
1.2555
1.2556
1.25569
1.25579
1.25589
1.25598
1.25607
1.25617
1.25626
1.25635
1.25644
1.25653
1.25662
1.2567
1.25679
1.25687
1.25696
1.25704
1.25712
1.2572
1.25728
1.25736
1.25744
1.25752
1.25759
1.25767
1.25774
1.25782
1.25789
1.25796
1.25803
1.2581
1.25817
1.25824
1.2583
1.25837
1.25844
1.2585
1.25856
1.25862
1.25869
1.25875
1.25881
1.25886
1.25892
1.25898
1.25903
1.25909
1.25914
1.25919
1.25924
1.25929
1.25934
1.25939
1.25944
1.25948
1.25953
1.25957
1.25961
1.25965
1.25969
1.25973
1.25977
1.2598
1.25984
1.25987
1.25991
1.25993
1.25997
1.25999
1.26002
1.35562
1.33445
1.31634
1.30208
1.29136
1.28321
1.27693
1.27199
1.26805
1.26486
1.26224
1.26008
1.25827
1.25675
1.25546
1.25437
1.25344
1.25265
1.25197
1.25139
1.25089
1.25046
1.2501
1.24979
1.24952
1.2493
1.24911
1.24895
1.24882
1.24871
1.24863
1.24856
1.24851
1.24848
1.24846
1.24845
1.24845
1.24846
1.24848
1.24851
1.24854
1.24858
1.24863
1.24868
1.24873
1.24879
1.24885
1.24891
1.24898
1.24905
1.24913
1.2492
1.24928
1.24935
1.24943
1.24951
1.24959
1.24968
1.24976
1.24984
1.24993
1.25001
1.2501
1.25018
1.25027
1.25035
1.25044
1.25052
1.25061
1.25069
1.25078
1.25086
1.25095
1.25103
1.25111
1.2512
1.25128
1.25136
1.25144
1.25152
1.25161
1.25169
1.25177
1.25184
1.25192
1.252
1.25208
1.25216
1.25223
1.25231
1.25238
1.25246
1.25253
1.2526
1.25268
1.25275
1.25282
1.25289
1.25296
1.25303
1.25309
1.25316
1.25323
1.25329
1.25336
1.25342
1.25349
1.25355
1.25361
1.25368
1.25374
1.2538
1.25386
1.25392
1.25397
1.25403
1.25409
1.25414
1.2542
1.25425
1.25431
1.25436
1.25441
1.25446
1.25451
1.25456
1.25461
1.25466
1.2547
1.25475
1.2548
1.25484
1.25488
1.25493
1.25497
1.25501
1.25505
1.25509
1.25512
1.25516
1.2552
1.25523
1.25526
1.2553
1.25533
1.25536
1.25539
1.25542
1.25544
1.25547
1.36044
1.34384
1.32761
1.3137
1.30259
1.29374
1.28666
1.28093
1.27622
1.27232
1.26905
1.26628
1.26392
1.2619
1.26015
1.25864
1.25732
1.25616
1.25515
1.25426
1.25348
1.25278
1.25217
1.25163
1.25115
1.25072
1.25034
1.25001
1.24971
1.24945
1.24922
1.24901
1.24883
1.24867
1.24854
1.24842
1.24831
1.24822
1.24815
1.24808
1.24803
1.24799
1.24796
1.24793
1.24791
1.2479
1.2479
1.2479
1.24791
1.24792
1.24794
1.24796
1.24799
1.24801
1.24805
1.24808
1.24812
1.24816
1.2482
1.24824
1.24829
1.24834
1.24839
1.24844
1.24849
1.24854
1.24859
1.24865
1.2487
1.24876
1.24882
1.24888
1.24893
1.24899
1.24905
1.24911
1.24917
1.24923
1.24929
1.24935
1.24941
1.24947
1.24953
1.24958
1.24964
1.2497
1.24976
1.24982
1.24988
1.24994
1.25
1.25006
1.25011
1.25017
1.25023
1.25028
1.25034
1.2504
1.25045
1.25051
1.25056
1.25062
1.25067
1.25072
1.25078
1.25083
1.25088
1.25093
1.25099
1.25104
1.25109
1.25114
1.25119
1.25124
1.25128
1.25133
1.25138
1.25143
1.25147
1.25152
1.25156
1.25161
1.25165
1.25169
1.25174
1.25178
1.25182
1.25186
1.2519
1.25194
1.25198
1.25202
1.25205
1.25209
1.25212
1.25216
1.25219
1.25223
1.25226
1.25229
1.25232
1.25235
1.25238
1.25241
1.25244
1.25247
1.25249
1.25252
1.25254
1.25257
1.36375
1.35147
1.33774
1.32492
1.31401
1.30491
1.29736
1.29106
1.28576
1.28127
1.27744
1.27413
1.27127
1.26877
1.26659
1.26466
1.26296
1.26144
1.2601
1.25889
1.25782
1.25685
1.25598
1.2552
1.25449
1.25385
1.25327
1.25275
1.25227
1.25184
1.25145
1.25109
1.25077
1.25047
1.2502
1.24996
1.24974
1.24954
1.24936
1.24919
1.24904
1.24891
1.24878
1.24867
1.24858
1.24849
1.24841
1.24834
1.24828
1.24823
1.24818
1.24814
1.2481
1.24808
1.24805
1.24803
1.24802
1.24801
1.24801
1.248
1.24801
1.24801
1.24802
1.24803
1.24804
1.24805
1.24807
1.24809
1.24811
1.24813
1.24816
1.24818
1.24821
1.24824
1.24827
1.2483
1.24833
1.24836
1.24839
1.24843
1.24846
1.2485
1.24853
1.24857
1.24861
1.24864
1.24868
1.24872
1.24876
1.2488
1.24883
1.24887
1.24891
1.24895
1.24899
1.24903
1.24907
1.24911
1.24915
1.24919
1.24922
1.24926
1.2493
1.24934
1.24938
1.24942
1.24946
1.24949
1.24953
1.24957
1.24961
1.24964
1.24968
1.24972
1.24975
1.24979
1.24983
1.24986
1.2499
1.24993
1.24997
1.25
1.25003
1.25007
1.2501
1.25013
1.25017
1.2502
1.25023
1.25026
1.25029
1.25032
1.25035
1.25038
1.25041
1.25043
1.25046
1.25049
1.25051
1.25054
1.25057
1.25059
1.25061
1.25064
1.25066
1.25068
1.2507
1.25073
1.25075
1.25077
1.36588
1.35731
1.34633
1.33512
1.32492
1.316
1.30832
1.30172
1.29604
1.29112
1.28684
1.28309
1.2798
1.27688
1.27429
1.27199
1.26992
1.26807
1.2664
1.26489
1.26352
1.26228
1.26116
1.26013
1.25919
1.25833
1.25754
1.25682
1.25616
1.25555
1.25498
1.25447
1.25399
1.25355
1.25314
1.25276
1.25242
1.25209
1.2518
1.25152
1.25126
1.25103
1.25081
1.2506
1.25041
1.25024
1.25008
1.24993
1.24979
1.24966
1.24955
1.24944
1.24934
1.24924
1.24916
1.24908
1.24901
1.24894
1.24888
1.24883
1.24878
1.24874
1.2487
1.24866
1.24863
1.2486
1.24857
1.24855
1.24853
1.24852
1.2485
1.24849
1.24848
1.24848
1.24847
1.24847
1.24847
1.24847
1.24847
1.24848
1.24848
1.24849
1.2485
1.2485
1.24852
1.24853
1.24854
1.24855
1.24857
1.24858
1.2486
1.24861
1.24863
1.24865
1.24866
1.24868
1.2487
1.24872
1.24874
1.24876
1.24878
1.2488
1.24882
1.24884
1.24886
1.24889
1.24891
1.24893
1.24895
1.24897
1.249
1.24902
1.24904
1.24906
1.24909
1.24911
1.24913
1.24915
1.24917
1.2492
1.24922
1.24924
1.24926
1.24928
1.2493
1.24933
1.24935
1.24937
1.24939
1.24941
1.24943
1.24945
1.24947
1.24949
1.24951
1.24953
1.24954
1.24956
1.24958
1.2496
1.24962
1.24963
1.24965
1.24966
1.24968
1.2497
1.24971
1.24973
1.24974
1.24976
1.36717
1.36155
1.35323
1.34393
1.33485
1.32649
1.31901
1.31239
1.30654
1.30138
1.29679
1.29272
1.28909
1.28583
1.28291
1.28027
1.27788
1.27572
1.27375
1.27196
1.27031
1.26881
1.26743
1.26616
1.265
1.26392
1.26292
1.262
1.26115
1.26035
1.25962
1.25893
1.2583
1.2577
1.25715
1.25663
1.25615
1.2557
1.25528
1.25488
1.25451
1.25417
1.25384
1.25354
1.25325
1.25298
1.25273
1.25249
1.25227
1.25206
1.25187
1.25168
1.25151
1.25135
1.25119
1.25105
1.25091
1.25078
1.25066
1.25055
1.25044
1.25035
1.25025
1.25016
1.25008
1.25
1.24993
1.24986
1.2498
1.24974
1.24968
1.24963
1.24958
1.24953
1.24949
1.24945
1.24941
1.24938
1.24935
1.24932
1.24929
1.24926
1.24924
1.24922
1.2492
1.24918
1.24916
1.24915
1.24914
1.24912
1.24911
1.2491
1.24909
1.24909
1.24908
1.24907
1.24907
1.24907
1.24906
1.24906
1.24906
1.24906
1.24906
1.24906
1.24906
1.24906
1.24907
1.24907
1.24907
1.24908
1.24908
1.24909
1.24909
1.2491
1.2491
1.24911
1.24911
1.24912
1.24913
1.24914
1.24914
1.24915
1.24916
1.24916
1.24917
1.24918
1.24919
1.2492
1.2492
1.24921
1.24922
1.24923
1.24924
1.24924
1.24925
1.24926
1.24927
1.24928
1.24928
1.24929
1.2493
1.2493
1.24931
1.24932
1.24933
1.24933
1.24934
1.24935
1.24935
1.24937
1.36791
1.36445
1.35851
1.35119
1.3435
1.33602
1.32904
1.32266
1.31687
1.31164
1.30692
1.30266
1.29879
1.29529
1.29211
1.2892
1.28655
1.28412
1.28189
1.27984
1.27795
1.27621
1.2746
1.2731
1.27172
1.27043
1.26923
1.26811
1.26707
1.2661
1.26519
1.26434
1.26354
1.26279
1.26209
1.26143
1.26081
1.26022
1.25967
1.25916
1.25867
1.25821
1.25777
1.25736
1.25697
1.2566
1.25625
1.25592
1.25561
1.25531
1.25503
1.25477
1.25451
1.25427
1.25405
1.25383
1.25362
1.25343
1.25324
1.25307
1.2529
1.25274
1.25258
1.25244
1.2523
1.25217
1.25204
1.25193
1.25181
1.2517
1.2516
1.2515
1.25141
1.25132
1.25123
1.25115
1.25107
1.251
1.25093
1.25086
1.25079
1.25073
1.25067
1.25061
1.25056
1.25051
1.25046
1.25041
1.25037
1.25033
1.25028
1.25025
1.25021
1.25017
1.25014
1.25011
1.25007
1.25004
1.25002
1.24999
1.24996
1.24994
1.24992
1.24989
1.24987
1.24985
1.24983
1.24981
1.2498
1.24978
1.24976
1.24975
1.24973
1.24972
1.24971
1.24969
1.24968
1.24967
1.24966
1.24965
1.24964
1.24963
1.24962
1.24961
1.2496
1.24959
1.24959
1.24958
1.24957
1.24957
1.24956
1.24955
1.24955
1.24954
1.24954
1.24953
1.24953
1.24952
1.24952
1.24951
1.24951
1.2495
1.2495
1.2495
1.24949
1.24949
1.24949
1.24949
1.24948
1.24948
1.3683
1.36633
1.36236
1.35691
1.35071
1.34432
1.33809
1.33218
1.32667
1.32157
1.31688
1.31256
1.3086
1.30496
1.3016
1.29851
1.29566
1.29303
1.29059
1.28832
1.28622
1.28427
1.28245
1.28075
1.27917
1.27769
1.2763
1.275
1.27378
1.27264
1.27156
1.27055
1.26959
1.26869
1.26784
1.26704
1.26628
1.26556
1.26488
1.26424
1.26363
1.26305
1.2625
1.26198
1.26148
1.26101
1.26056
1.26013
1.25972
1.25934
1.25897
1.25861
1.25828
1.25796
1.25765
1.25736
1.25708
1.25681
1.25655
1.25631
1.25607
1.25585
1.25563
1.25542
1.25523
1.25504
1.25485
1.25468
1.25451
1.25435
1.25419
1.25404
1.2539
1.25376
1.25363
1.2535
1.25338
1.25326
1.25315
1.25304
1.25293
1.25283
1.25273
1.25263
1.25254
1.25245
1.25237
1.25229
1.25221
1.25213
1.25206
1.25198
1.25191
1.25185
1.25178
1.25172
1.25166
1.2516
1.25154
1.25149
1.25143
1.25138
1.25133
1.25128
1.25124
1.25119
1.25115
1.2511
1.25106
1.25102
1.25098
1.25094
1.25091
1.25087
1.25084
1.2508
1.25077
1.25074
1.25071
1.25068
1.25065
1.25062
1.25059
1.25056
1.25054
1.25051
1.25049
1.25046
1.25044
1.25041
1.25039
1.25037
1.25035
1.25033
1.2503
1.25028
1.25026
1.25024
1.25023
1.25021
1.25019
1.25017
1.25015
1.25014
1.25012
1.2501
1.25009
1.25007
1.25006
1.25005
1.36848
1.36748
1.36501
1.36119
1.35647
1.35127
1.34595
1.3407
1.33566
1.33087
1.32637
1.32215
1.31822
1.31455
1.31113
1.30794
1.30497
1.3022
1.29961
1.29719
1.29492
1.2928
1.29081
1.28894
1.28719
1.28554
1.28399
1.28252
1.28114
1.27984
1.2786
1.27744
1.27633
1.27529
1.2743
1.27336
1.27246
1.27161
1.27081
1.27004
1.26931
1.26861
1.26795
1.26732
1.26671
1.26613
1.26558
1.26506
1.26455
1.26407
1.26361
1.26317
1.26275
1.26234
1.26195
1.26158
1.26122
1.26087
1.26054
1.26023
1.25992
1.25963
1.25934
1.25907
1.25881
1.25856
1.25831
1.25808
1.25785
1.25764
1.25742
1.25722
1.25702
1.25683
1.25665
1.25647
1.2563
1.25614
1.25598
1.25582
1.25567
1.25552
1.25538
1.25524
1.25511
1.25498
1.25486
1.25474
1.25462
1.2545
1.25439
1.25429
1.25418
1.25408
1.25398
1.25388
1.25379
1.2537
1.25361
1.25352
1.25344
1.25336
1.25328
1.2532
1.25313
1.25305
1.25298
1.25291
1.25284
1.25277
1.25271
1.25265
1.25258
1.25252
1.25247
1.25241
1.25235
1.2523
1.25224
1.25219
1.25214
1.25209
1.25204
1.25199
1.25194
1.2519
1.25185
1.25181
1.25176
1.25172
1.25168
1.25164
1.2516
1.25156
1.25152
1.25148
1.25145
1.25141
1.25138
1.25134
1.25131
1.25127
1.25124
1.25121
1.25118
1.25115
1.25112
1.25109
1.25105
1.25103
1.36855
1.36814
1.36674
1.36426
1.36086
1.35685
1.35252
1.34807
1.34363
1.33931
1.33514
1.33116
1.32739
1.32381
1.32043
1.31724
1.31424
1.3114
1.30873
1.30622
1.30384
1.30161
1.29949
1.29749
1.2956
1.29382
1.29212
1.29052
1.289
1.28756
1.28619
1.28489
1.28365
1.28247
1.28135
1.28028
1.27926
1.27829
1.27736
1.27647
1.27563
1.27482
1.27404
1.2733
1.27259
1.27191
1.27126
1.27064
1.27004
1.26946
1.26891
1.26838
1.26786
1.26737
1.2669
1.26645
1.26601
1.26559
1.26518
1.26479
1.26441
1.26404
1.26369
1.26335
1.26302
1.2627
1.2624
1.2621
1.26181
1.26153
1.26127
1.261
1.26075
1.26051
1.26027
1.26004
1.25982
1.2596
1.25939
1.25918
1.25899
1.25879
1.25861
1.25842
1.25825
1.25807
1.25791
1.25774
1.25759
1.25743
1.25728
1.25713
1.25699
1.25685
1.25671
1.25658
1.25645
1.25633
1.2562
1.25608
1.25597
1.25585
1.25574
1.25563
1.25552
1.25542
1.25532
1.25522
1.25512
1.25502
1.25493
1.25484
1.25475
1.25466
1.25458
1.25449
1.25441
1.25433
1.25425
1.25417
1.2541
1.25402
1.25395
1.25388
1.25381
1.25374
1.25367
1.25361
1.25354
1.25348
1.25342
1.25335
1.25329
1.25323
1.25318
1.25312
1.25306
1.25301
1.25295
1.2529
1.25285
1.2528
1.25275
1.2527
1.25265
1.2526
1.25255
1.25251
1.25246
1.25242
1.36857
1.36848
1.36781
1.36632
1.36405
1.36113
1.35779
1.35418
1.35046
1.34671
1.343
1.33938
1.33588
1.3325
1.32927
1.32618
1.32323
1.32042
1.31775
1.3152
1.31278
1.31048
1.3083
1.30621
1.30423
1.30235
1.30055
1.29884
1.29721
1.29566
1.29418
1.29276
1.29141
1.29012
1.28888
1.2877
1.28657
1.28548
1.28445
1.28345
1.2825
1.28158
1.2807
1.27986
1.27905
1.27827
1.27752
1.2768
1.27611
1.27544
1.2748
1.27418
1.27358
1.27301
1.27245
1.27191
1.2714
1.2709
1.27041
1.26995
1.26949
1.26906
1.26863
1.26822
1.26783
1.26744
1.26707
1.26671
1.26636
1.26602
1.26569
1.26537
1.26506
1.26476
1.26446
1.26418
1.2639
1.26363
1.26337
1.26311
1.26286
1.26262
1.26239
1.26216
1.26193
1.26171
1.2615
1.26129
1.26109
1.26089
1.2607
1.26051
1.26033
1.26015
1.25997
1.2598
1.25964
1.25947
1.25931
1.25916
1.259
1.25885
1.25871
1.25856
1.25842
1.25828
1.25815
1.25802
1.25789
1.25776
1.25764
1.25752
1.2574
1.25728
1.25716
1.25705
1.25694
1.25683
1.25673
1.25662
1.25652
1.25642
1.25632
1.25622
1.25613
1.25603
1.25594
1.25585
1.25576
1.25568
1.25559
1.25551
1.25542
1.25534
1.25526
1.25518
1.25511
1.25503
1.25495
1.25488
1.25481
1.25474
1.25467
1.2546
1.25453
1.25446
1.2544
1.25434
1.25427
1.25421
1.36855
1.36863
1.36841
1.36763
1.36623
1.36426
1.36183
1.35906
1.35608
1.35297
1.3498
1.34664
1.3435
1.34043
1.33744
1.33454
1.33173
1.32903
1.32643
1.32393
1.32153
1.31924
1.31703
1.31492
1.3129
1.31096
1.30911
1.30733
1.30562
1.30399
1.30242
1.30092
1.29948
1.2981
1.29677
1.29549
1.29427
1.29309
1.29196
1.29087
1.28982
1.28881
1.28784
1.2869
1.286
1.28513
1.28429
1.28349
1.28271
1.28195
1.28122
1.28052
1.27984
1.27918
1.27855
1.27793
1.27734
1.27676
1.2762
1.27566
1.27514
1.27463
1.27413
1.27366
1.27319
1.27274
1.2723
1.27188
1.27146
1.27106
1.27067
1.27029
1.26992
1.26956
1.26921
1.26887
1.26854
1.26821
1.2679
1.26759
1.26729
1.26699
1.26671
1.26643
1.26616
1.26589
1.26563
1.26538
1.26513
1.26489
1.26465
1.26442
1.26419
1.26397
1.26375
1.26354
1.26333
1.26313
1.26293
1.26273
1.26254
1.26236
1.26217
1.26199
1.26182
1.26164
1.26147
1.26131
1.26114
1.26098
1.26083
1.26067
1.26052
1.26037
1.26023
1.26008
1.25994
1.25981
1.25967
1.25954
1.2594
1.25928
1.25915
1.25902
1.2589
1.25878
1.25866
1.25855
1.25843
1.25832
1.25821
1.2581
1.25799
1.25789
1.25778
1.25768
1.25758
1.25748
1.25738
1.25729
1.25719
1.2571
1.25701
1.25692
1.25683
1.25674
1.25666
1.25657
1.25648
1.25641
1.36853
1.36867
1.36872
1.3684
1.36764
1.36642
1.36477
1.36277
1.36051
1.35806
1.35548
1.35282
1.35013
1.34744
1.34477
1.34214
1.33956
1.33704
1.33459
1.33221
1.3299
1.32767
1.32551
1.32343
1.32141
1.31947
1.3176
1.3158
1.31406
1.31239
1.31077
1.30922
1.30772
1.30627
1.30488
1.30353
1.30223
1.30098
1.29978
1.29861
1.29748
1.2964
1.29535
1.29433
1.29335
1.2924
1.29149
1.2906
1.28974
1.28891
1.2881
1.28732
1.28657
1.28584
1.28513
1.28444
1.28377
1.28312
1.28249
1.28188
1.28129
1.28071
1.28015
1.2796
1.27907
1.27856
1.27805
1.27757
1.27709
1.27663
1.27618
1.27574
1.27531
1.27489
1.27448
1.27408
1.2737
1.27332
1.27295
1.27259
1.27223
1.27189
1.27155
1.27122
1.2709
1.27059
1.27028
1.26998
1.26968
1.26939
1.26911
1.26883
1.26856
1.2683
1.26804
1.26778
1.26753
1.26729
1.26705
1.26681
1.26658
1.26636
1.26614
1.26592
1.2657
1.26549
1.26529
1.26509
1.26489
1.26469
1.2645
1.26431
1.26413
1.26395
1.26377
1.26359
1.26342
1.26325
1.26308
1.26292
1.26276
1.2626
1.26244
1.26229
1.26213
1.26198
1.26184
1.26169
1.26155
1.26141
1.26127
1.26114
1.261
1.26087
1.26074
1.26061
1.26049
1.26036
1.26024
1.26012
1.26
1.25989
1.25977
1.25966
1.25955
1.25944
1.25933
1.25922
1.25911
1.25902
1.36851
1.36866
1.36884
1.36881
1.36848
1.36781
1.36679
1.36545
1.36384
1.36202
1.36002
1.3579
1.35569
1.35343
1.35114
1.34885
1.34656
1.34429
1.34205
1.33985
1.3377
1.33559
1.33354
1.33154
1.32959
1.3277
1.32587
1.32408
1.32236
1.32068
1.31906
1.31748
1.31596
1.31448
1.31305
1.31167
1.31033
1.30903
1.30777
1.30655
1.30537
1.30422
1.30311
1.30204
1.30099
1.29998
1.299
1.29805
1.29712
1.29622
1.29535
1.29451
1.29368
1.29289
1.29211
1.29135
1.29062
1.28991
1.28921
1.28854
1.28788
1.28724
1.28662
1.28601
1.28542
1.28484
1.28428
1.28373
1.28319
1.28267
1.28216
1.28166
1.28118
1.2807
1.28024
1.27979
1.27935
1.27891
1.27849
1.27808
1.27767
1.27728
1.27689
1.27651
1.27614
1.27578
1.27542
1.27507
1.27473
1.2744
1.27407
1.27375
1.27343
1.27312
1.27282
1.27252
1.27223
1.27194
1.27166
1.27139
1.27111
1.27085
1.27059
1.27033
1.27008
1.26983
1.26959
1.26935
1.26911
1.26888
1.26865
1.26843
1.26821
1.26799
1.26778
1.26757
1.26736
1.26716
1.26696
1.26676
1.26657
1.26638
1.26619
1.26601
1.26583
1.26565
1.26547
1.2653
1.26512
1.26496
1.26479
1.26462
1.26446
1.2643
1.26415
1.26399
1.26384
1.26369
1.26354
1.26339
1.26325
1.26311
1.26297
1.26283
1.2627
1.26256
1.26243
1.2623
1.26217
1.26205
1.3685
1.36862
1.36885
1.36898
1.36893
1.36864
1.36809
1.36728
1.36622
1.36495
1.3635
1.36189
1.36017
1.35836
1.35649
1.35456
1.35261
1.35064
1.34868
1.34672
1.34477
1.34285
1.34096
1.33909
1.33727
1.33547
1.33372
1.33201
1.33033
1.3287
1.32711
1.32556
1.32405
1.32258
1.32114
1.31975
1.3184
1.31708
1.31579
1.31455
1.31333
1.31215
1.311
1.30989
1.3088
1.30774
1.30671
1.30571
1.30474
1.30379
1.30287
1.30197
1.30109
1.30024
1.29941
1.2986
1.29781
1.29704
1.29629
1.29556
1.29484
1.29415
1.29347
1.29281
1.29216
1.29153
1.29091
1.2903
1.28971
1.28914
1.28858
1.28802
1.28749
1.28696
1.28644
1.28594
1.28545
1.28496
1.28449
1.28403
1.28357
1.28313
1.28269
1.28226
1.28184
1.28143
1.28103
1.28064
1.28025
1.27987
1.2795
1.27913
1.27877
1.27842
1.27807
1.27773
1.2774
1.27707
1.27675
1.27643
1.27612
1.27581
1.27551
1.27521
1.27492
1.27464
1.27435
1.27408
1.27381
1.27354
1.27327
1.27301
1.27276
1.27251
1.27226
1.27201
1.27177
1.27154
1.2713
1.27107
1.27085
1.27062
1.2704
1.27019
1.26997
1.26976
1.26956
1.26935
1.26915
1.26895
1.26876
1.26856
1.26837
1.26818
1.268
1.26782
1.26764
1.26746
1.26728
1.26711
1.26694
1.26677
1.2666
1.26644
1.26628
1.26612
1.26596
1.26581
1.26565
1.26551
1.36849
1.36858
1.36881
1.36901
1.36912
1.36908
1.36886
1.36843
1.36781
1.367
1.36602
1.36489
1.36362
1.36225
1.36079
1.35925
1.35766
1.35603
1.35437
1.35268
1.35099
1.3493
1.34761
1.34594
1.34427
1.34263
1.341
1.3394
1.33783
1.33628
1.33476
1.33328
1.33182
1.33039
1.32899
1.32762
1.32629
1.32498
1.3237
1.32246
1.32124
1.32005
1.31889
1.31775
1.31665
1.31556
1.31451
1.31348
1.31247
1.31149
1.31053
1.3096
1.30868
1.30779
1.30692
1.30607
1.30524
1.30442
1.30363
1.30285
1.30209
1.30135
1.30062
1.29991
1.29922
1.29854
1.29787
1.29722
1.29659
1.29596
1.29535
1.29475
1.29417
1.29359
1.29303
1.29248
1.29194
1.29141
1.29089
1.29038
1.28988
1.28939
1.28891
1.28843
1.28797
1.28751
1.28707
1.28663
1.2862
1.28577
1.28536
1.28495
1.28455
1.28415
1.28377
1.28338
1.28301
1.28264
1.28228
1.28192
1.28157
1.28122
1.28088
1.28055
1.28022
1.2799
1.27958
1.27926
1.27895
1.27865
1.27835
1.27805
1.27776
1.27747
1.27719
1.27691
1.27664
1.27637
1.2761
1.27584
1.27558
1.27532
1.27507
1.27482
1.27458
1.27433
1.27409
1.27386
1.27363
1.2734
1.27317
1.27295
1.27273
1.27251
1.2723
1.27208
1.27187
1.27167
1.27146
1.27126
1.27107
1.27087
1.27068
1.27049
1.2703
1.27011
1.26993
1.26975
1.26957
1.2694
1.36848
1.36854
1.36874
1.36897
1.36916
1.36926
1.36924
1.36909
1.36879
1.36834
1.36774
1.36701
1.36614
1.36517
1.36409
1.36294
1.3617
1.36041
1.35907
1.35769
1.35628
1.35485
1.35341
1.35195
1.35049
1.34903
1.34758
1.34613
1.34469
1.34327
1.34187
1.34048
1.33911
1.33776
1.33643
1.33512
1.33384
1.33258
1.33134
1.33012
1.32893
1.32776
1.32661
1.32549
1.32438
1.3233
1.32224
1.32121
1.32019
1.3192
1.31822
1.31727
1.31634
1.31542
1.31452
1.31365
1.31279
1.31194
1.31112
1.31031
1.30952
1.30874
1.30798
1.30724
1.30651
1.30579
1.30509
1.3044
1.30372
1.30306
1.30241
1.30177
1.30114
1.30053
1.29993
1.29934
1.29875
1.29818
1.29762
1.29707
1.29653
1.296
1.29548
1.29497
1.29446
1.29397
1.29348
1.293
1.29253
1.29207
1.29161
1.29116
1.29072
1.29029
1.28986
1.28944
1.28903
1.28862
1.28822
1.28782
1.28743
1.28705
1.28667
1.2863
1.28594
1.28558
1.28522
1.28487
1.28453
1.28419
1.28385
1.28352
1.28319
1.28287
1.28256
1.28224
1.28193
1.28163
1.28133
1.28103
1.28074
1.28045
1.28017
1.27989
1.27961
1.27934
1.27907
1.2788
1.27854
1.27828
1.27802
1.27777
1.27752
1.27727
1.27703
1.27679
1.27655
1.27632
1.27608
1.27585
1.27563
1.2754
1.27518
1.27497
1.27475
1.27454
1.27433
1.27412
1.27391
1.27372
1.36848
1.36851
1.36868
1.36889
1.36911
1.36929
1.36939
1.36941
1.36933
1.36913
1.36883
1.3684
1.36787
1.36724
1.36651
1.36569
1.3648
1.36383
1.36281
1.36173
1.36061
1.35946
1.35827
1.35706
1.35583
1.35458
1.35333
1.35206
1.3508
1.34954
1.34828
1.34703
1.34578
1.34454
1.34332
1.3421
1.3409
1.33972
1.33855
1.33739
1.33625
1.33513
1.33403
1.33294
1.33187
1.33081
1.32978
1.32876
1.32775
1.32677
1.3258
1.32485
1.32392
1.323
1.3221
1.32121
1.32034
1.31949
1.31865
1.31782
1.31701
1.31622
1.31543
1.31467
1.31391
1.31317
1.31244
1.31173
1.31102
1.31033
1.30965
1.30899
1.30833
1.30768
1.30705
1.30643
1.30581
1.30521
1.30461
1.30403
1.30346
1.30289
1.30234
1.30179
1.30125
1.30072
1.3002
1.29968
1.29918
1.29868
1.29819
1.29771
1.29723
1.29676
1.2963
1.29585
1.2954
1.29495
1.29452
1.29409
1.29367
1.29325
1.29284
1.29243
1.29203
1.29164
1.29125
1.29087
1.29049
1.29011
1.28975
1.28938
1.28902
1.28867
1.28832
1.28798
1.28764
1.2873
1.28697
1.28664
1.28632
1.286
1.28568
1.28537
1.28506
1.28476
1.28446
1.28416
1.28387
1.28358
1.28329
1.28301
1.28273
1.28246
1.28218
1.28191
1.28165
1.28138
1.28112
1.28087
1.28061
1.28036
1.28012
1.27987
1.27963
1.27939
1.27915
1.27892
1.27869
1.27847
1.36848
1.36849
1.36862
1.36881
1.36902
1.36922
1.36939
1.36951
1.36956
1.36954
1.36943
1.36924
1.36897
1.3686
1.36816
1.36763
1.36703
1.36636
1.36563
1.36484
1.364
1.36312
1.36219
1.36123
1.36024
1.35922
1.35819
1.35713
1.35606
1.35498
1.3539
1.35281
1.35171
1.35062
1.34952
1.34843
1.34734
1.34626
1.34519
1.34413
1.34307
1.34202
1.34099
1.33996
1.33895
1.33795
1.33696
1.33598
1.33501
1.33406
1.33312
1.3322
1.33128
1.33038
1.3295
1.32862
1.32776
1.32691
1.32608
1.32525
1.32444
1.32364
1.32286
1.32208
1.32132
1.32057
1.31983
1.3191
1.31838
1.31767
1.31698
1.31629
1.31562
1.31495
1.3143
1.31365
1.31301
1.31239
1.31177
1.31116
1.31056
1.30997
1.30939
1.30882
1.30825
1.30769
1.30714
1.3066
1.30607
1.30554
1.30502
1.30451
1.30401
1.30351
1.30302
1.30253
1.30205
1.30158
1.30112
1.30066
1.30021
1.29976
1.29932
1.29888
1.29845
1.29803
1.29761
1.29719
1.29679
1.29638
1.29598
1.29559
1.2952
1.29482
1.29444
1.29407
1.2937
1.29333
1.29297
1.29261
1.29226
1.29191
1.29157
1.29123
1.29089
1.29056
1.29023
1.2899
1.28958
1.28927
1.28895
1.28864
1.28833
1.28803
1.28773
1.28743
1.28714
1.28685
1.28656
1.28628
1.286
1.28572
1.28545
1.28518
1.28491
1.28464
1.28438
1.28412
1.28386
1.28362
1.36849
1.36847
1.36857
1.36873
1.36892
1.36912
1.36931
1.36948
1.3696
1.36968
1.36971
1.36968
1.36958
1.36942
1.36919
1.3689
1.36854
1.36812
1.36764
1.36711
1.36652
1.36589
1.36521
1.36449
1.36374
1.36295
1.36214
1.3613
1.36043
1.35955
1.35865
1.35774
1.35682
1.35588
1.35494
1.354
1.35305
1.3521
1.35115
1.3502
1.34925
1.3483
1.34736
1.34642
1.34549
1.34456
1.34364
1.34273
1.34183
1.34093
1.34004
1.33917
1.3383
1.33744
1.33658
1.33574
1.33491
1.33409
1.33327
1.33247
1.33167
1.33089
1.33012
1.32935
1.3286
1.32785
1.32711
1.32639
1.32567
1.32496
1.32426
1.32357
1.32289
1.32222
1.32155
1.3209
1.32025
1.31961
1.31898
1.31836
1.31775
1.31714
1.31654
1.31595
1.31537
1.31479
1.31423
1.31366
1.31311
1.31256
1.31202