/*--------------------------------*- C++ -*----------------------------------*\
| =========                 |                                                 |
| \\      /  F ield         | OpenFOAM: The Open Source CFD Toolbox           |
|  \\    /   O peration     | Version:  5.x                                   |
|   \\  /    A nd           | Web:      www.OpenFOAM.org                      |
|    \\/     M anipulation  |                                                 |
\*---------------------------------------------------------------------------*/
FoamFile
{
    version     2.0;
    format      ascii;
    class       volScalarField;
    location    "0";
    object      nut;
}
// * * * * * * * * * * * * * * * * * * * * * * * * * * * * * * * * * * * * * //

dimensions      [0 2 -1 0 0 0 0];

internalField   nonuniform List<scalar> 
25800
(
0.00637088
0.00630872
0.00629637
0.00629476
0.00629481
0.00629606
0.00629779
0.00629978
0.00630183
0.00630389
0.0063059
0.00630786
0.00630976
0.00631158
0.00631332
0.006315
0.00631661
0.00631815
0.00631963
0.00632105
0.00632242
0.00632373
0.00632499
0.00632621
0.00632737
0.0063285
0.00632959
0.00633064
0.00633166
0.00633264
0.00633359
0.00633451
0.0063354
0.00633626
0.0063371
0.00633792
0.00633871
0.00633949
0.00634024
0.00634097
0.00634168
0.00634238
0.00634306
0.00634372
0.00634437
0.006345
0.00634562
0.00634622
0.00634681
0.00634739
0.00634796
0.00634852
0.00634906
0.0063496
0.00635012
0.00635064
0.00635114
0.00635164
0.00635213
0.00635261
0.00635308
0.00635354
0.00635399
0.00635444
0.00635488
0.00635531
0.00635574
0.00635616
0.00635657
0.00635697
0.00635737
0.00635776
0.00635815
0.00635853
0.0063589
0.00635927
0.00635963
0.00635999
0.00636034
0.00636069
0.00636103
0.00636137
0.0063617
0.00636203
0.00636235
0.00636266
0.00636298
0.00636328
0.00636359
0.00636388
0.00636418
0.00636447
0.00636475
0.00636503
0.00636531
0.00636558
0.00636585
0.00636611
0.00636637
0.00636662
0.00636687
0.00636712
0.00636737
0.0063676
0.00636784
0.00636807
0.0063683
0.00636852
0.00636874
0.00636896
0.00636917
0.00636938
0.00636958
0.00636978
0.00636998
0.00637017
0.00637036
0.00637054
0.00637072
0.0063709
0.00637107
0.00637124
0.00637141
0.00637157
0.00637172
0.00637188
0.00637202
0.00637217
0.0063723
0.00637244
0.00637257
0.0063727
0.00637281
0.00637293
0.00637304
0.00637315
0.00637324
0.00637334
0.00637343
0.00637351
0.00637358
0.00637366
0.00637371
0.00637377
0.00637379
0.00637385
0.00637384
0.0063739
0.00637382
0.00637401
0.0190824
0.0186867
0.018535
0.0184444
0.01839
0.0183555
0.0183326
0.0183169
0.018306
0.0182982
0.0182928
0.018289
0.0182864
0.0182847
0.0182838
0.0182835
0.0182835
0.0182839
0.0182846
0.0182855
0.0182865
0.0182877
0.018289
0.0182904
0.0182919
0.0182933
0.0182949
0.0182964
0.018298
0.0182995
0.0183011
0.0183027
0.0183043
0.0183058
0.0183074
0.0183089
0.0183104
0.0183119
0.0183134
0.0183149
0.0183164
0.0183178
0.0183192
0.0183206
0.018322
0.0183234
0.0183247
0.0183261
0.0183274
0.0183287
0.01833
0.0183312
0.0183325
0.0183337
0.0183349
0.0183361
0.0183373
0.0183385
0.0183396
0.0183407
0.0183419
0.018343
0.0183441
0.0183451
0.0183462
0.0183472
0.0183483
0.0183493
0.0183503
0.0183513
0.0183523
0.0183532
0.0183542
0.0183551
0.0183561
0.018357
0.0183579
0.0183588
0.0183597
0.0183605
0.0183614
0.0183623
0.0183631
0.0183639
0.0183647
0.0183656
0.0183663
0.0183671
0.0183679
0.0183687
0.0183694
0.0183702
0.0183709
0.0183717
0.0183724
0.0183731
0.0183738
0.0183745
0.0183752
0.0183758
0.0183765
0.0183771
0.0183778
0.0183784
0.0183791
0.0183797
0.0183803
0.0183809
0.0183815
0.0183821
0.0183826
0.0183832
0.0183838
0.0183843
0.0183849
0.0183854
0.0183859
0.0183864
0.018387
0.0183875
0.0183879
0.0183884
0.0183889
0.0183894
0.0183898
0.0183903
0.0183907
0.0183911
0.0183916
0.018392
0.0183924
0.0183928
0.0183932
0.0183935
0.0183939
0.0183943
0.0183946
0.018395
0.0183953
0.0183956
0.0183959
0.0183962
0.0183965
0.0183968
0.018397
0.0183973
0.0183975
0.0183977
0.018398
0.018398
0.0339691
0.0328279
0.0323217
0.0320147
0.0318125
0.0316707
0.0315667
0.0314878
0.0314263
0.0313774
0.0313378
0.0313053
0.0312784
0.031256
0.031237
0.031221
0.0312074
0.0311958
0.0311858
0.0311773
0.03117
0.0311637
0.0311582
0.0311536
0.0311496
0.0311462
0.0311433
0.0311408
0.0311387
0.0311369
0.0311355
0.0311343
0.0311334
0.0311326
0.0311321
0.0311317
0.0311315
0.0311314
0.0311314
0.0311315
0.0311317
0.031132
0.0311324
0.0311328
0.0311333
0.0311339
0.0311345
0.0311352
0.0311359
0.0311366
0.0311373
0.0311381
0.031139
0.0311398
0.0311407
0.0311415
0.0311424
0.0311433
0.0311443
0.0311452
0.0311461
0.0311471
0.031148
0.031149
0.03115
0.0311509
0.0311519
0.0311529
0.0311539
0.0311548
0.0311558
0.0311568
0.0311577
0.0311587
0.0311597
0.0311606
0.0311616
0.0311625
0.0311635
0.0311644
0.0311654
0.0311663
0.0311673
0.0311682
0.0311691
0.03117
0.0311709
0.0311718
0.0311727
0.0311736
0.0311745
0.0311754
0.0311762
0.0311771
0.0311779
0.0311788
0.0311796
0.0311805
0.0311813
0.0311821
0.0311829
0.0311837
0.0311845
0.0311853
0.0311861
0.0311868
0.0311876
0.0311884
0.0311891
0.0311899
0.0311906
0.0311913
0.0311921
0.0311928
0.0311935
0.0311942
0.0311949
0.0311955
0.0311962
0.0311969
0.0311975
0.0311982
0.0311988
0.0311995
0.0312001
0.0312007
0.0312013
0.0312019
0.0312025
0.0312031
0.0312037
0.0312042
0.0312048
0.0312053
0.0312059
0.0312064
0.0312069
0.0312074
0.0312079
0.0312084
0.0312089
0.0312094
0.0312099
0.0312104
0.0312108
0.0312113
0.0312118
0.0312122
0.0312128
0.031213
0.051427
0.0497689
0.0488971
0.0483282
0.0479264
0.0476272
0.0473963
0.0472131
0.0470645
0.046942
0.0468395
0.0467527
0.0466785
0.0466146
0.046559
0.0465105
0.0464679
0.0464302
0.0463969
0.0463671
0.0463406
0.0463168
0.0462954
0.0462762
0.0462588
0.046243
0.0462288
0.0462158
0.046204
0.0461933
0.0461835
0.0461746
0.0461664
0.046159
0.0461521
0.0461458
0.0461401
0.0461348
0.04613
0.0461256
0.0461215
0.0461178
0.0461143
0.0461112
0.0461083
0.0461057
0.0461033
0.0461011
0.0460991
0.0460972
0.0460955
0.046094
0.0460926
0.0460914
0.0460903
0.0460893
0.0460884
0.0460876
0.0460868
0.0460862
0.0460857
0.0460852
0.0460848
0.0460845
0.0460842
0.046084
0.0460838
0.0460837
0.0460837
0.0460836
0.0460837
0.0460837
0.0460838
0.0460839
0.0460841
0.0460843
0.0460845
0.0460848
0.046085
0.0460853
0.0460856
0.046086
0.0460863
0.0460867
0.046087
0.0460874
0.0460878
0.0460883
0.0460887
0.0460891
0.0460896
0.04609
0.0460905
0.046091
0.0460915
0.046092
0.0460925
0.046093
0.0460935
0.046094
0.0460945
0.046095
0.0460956
0.0460961
0.0460966
0.0460972
0.0460977
0.0460982
0.0460988
0.0460993
0.0460999
0.0461004
0.0461009
0.0461015
0.046102
0.0461026
0.0461031
0.0461036
0.0461042
0.0461047
0.0461053
0.0461058
0.0461063
0.0461069
0.0461074
0.0461079
0.0461085
0.046109
0.0461095
0.04611
0.0461105
0.0461111
0.0461116
0.0461121
0.0461126
0.0461131
0.0461136
0.0461141
0.0461146
0.0461151
0.0461156
0.0461161
0.0461166
0.0461171
0.0461177
0.0461183
0.0461188
0.0461194
0.04612
0.0461206
0.0709293
0.0691122
0.0679979
0.067207
0.0666097
0.0661397
0.0657598
0.0654466
0.0651843
0.0649618
0.0647711
0.064606
0.064462
0.0643355
0.0642237
0.0641244
0.0640356
0.0639561
0.0638844
0.0638196
0.0637609
0.0637075
0.0636587
0.0636142
0.0635734
0.0635359
0.0635014
0.0634696
0.0634402
0.063413
0.0633878
0.0633644
0.0633426
0.0633224
0.0633035
0.0632859
0.0632694
0.0632541
0.0632397
0.0632262
0.0632135
0.0632017
0.0631905
0.06318
0.0631701
0.0631609
0.0631521
0.0631438
0.0631361
0.0631287
0.0631218
0.0631152
0.063109
0.0631032
0.0630976
0.0630924
0.0630874
0.0630827
0.0630782
0.063074
0.06307
0.0630662
0.0630626
0.0630591
0.0630559
0.0630528
0.0630499
0.0630471
0.0630444
0.0630419
0.0630395
0.0630373
0.0630351
0.0630331
0.0630311
0.0630292
0.0630275
0.0630258
0.0630242
0.0630227
0.0630212
0.0630199
0.0630186
0.0630173
0.0630161
0.063015
0.063014
0.0630129
0.063012
0.0630111
0.0630102
0.0630094
0.0630086
0.0630079
0.0630072
0.0630065
0.0630059
0.0630053
0.0630048
0.0630042
0.0630037
0.0630033
0.0630028
0.0630024
0.063002
0.0630017
0.0630014
0.063001
0.0630008
0.0630005
0.0630002
0.063
0.0629998
0.0629996
0.0629995
0.0629993
0.0629992
0.062999
0.0629989
0.0629988
0.0629988
0.0629987
0.0629987
0.0629986
0.0629986
0.0629986
0.0629986
0.0629986
0.0629987
0.0629987
0.0629988
0.0629988
0.0629989
0.062999
0.0629991
0.0629992
0.0629993
0.0629995
0.0629996
0.0629998
0.063
0.0630002
0.0630004
0.0630006
0.0630009
0.0630013
0.0630015
0.0630021
0.0630025
0.0630033
0.0923058
0.0906293
0.0894544
0.0885454
0.0878112
0.0871997
0.0866818
0.0862379
0.085854
0.0855193
0.0852255
0.0849659
0.0847354
0.0845295
0.0843447
0.0841783
0.0840277
0.083891
0.0837664
0.0836526
0.0835484
0.0834526
0.0833644
0.083283
0.0832077
0.083138
0.0830732
0.0830129
0.0829568
0.0829044
0.0828555
0.0828097
0.0827668
0.0827265
0.0826887
0.0826531
0.0826196
0.082588
0.0825582
0.08253
0.0825034
0.0824782
0.0824544
0.0824318
0.0824103
0.0823899
0.0823706
0.0823522
0.0823347
0.082318
0.0823021
0.0822869
0.0822725
0.0822587
0.0822455
0.0822329
0.0822209
0.0822093
0.0821983
0.0821877
0.0821776
0.0821679
0.0821586
0.0821496
0.082141
0.0821328
0.0821248
0.0821172
0.0821099
0.0821028
0.082096
0.0820895
0.0820832
0.0820771
0.0820712
0.0820656
0.0820601
0.0820548
0.0820497
0.0820448
0.0820401
0.0820355
0.082031
0.0820267
0.0820226
0.0820186
0.0820147
0.0820109
0.0820072
0.0820037
0.0820003
0.0819969
0.0819937
0.0819906
0.0819876
0.0819846
0.0819818
0.081979
0.0819763
0.0819737
0.0819712
0.0819687
0.0819664
0.081964
0.0819618
0.0819596
0.0819575
0.0819554
0.0819534
0.0819515
0.0819496
0.0819478
0.081946
0.0819443
0.0819426
0.0819409
0.0819394
0.0819378
0.0819363
0.0819349
0.0819335
0.0819321
0.0819308
0.0819295
0.0819283
0.081927
0.0819259
0.0819247
0.0819236
0.0819226
0.0819216
0.0819206
0.0819196
0.0819187
0.0819178
0.081917
0.0819162
0.0819154
0.0819146
0.0819139
0.0819133
0.0819126
0.0819121
0.0819115
0.081911
0.0819107
0.0819102
0.0819103
0.0819099
0.0819107
0.115579
0.114242
0.113181
0.112285
0.111508
0.11082
0.110207
0.109659
0.109169
0.108729
0.108332
0.107974
0.107651
0.107356
0.107089
0.106844
0.10662
0.106414
0.106225
0.10605
0.105888
0.105739
0.1056
0.10547
0.10535
0.105237
0.105132
0.105033
0.104941
0.104854
0.104773
0.104696
0.104623
0.104555
0.104491
0.10443
0.104372
0.104317
0.104265
0.104216
0.104169
0.104125
0.104082
0.104042
0.104004
0.103967
0.103932
0.103898
0.103866
0.103836
0.103807
0.103778
0.103752
0.103726
0.103701
0.103677
0.103654
0.103632
0.103611
0.103591
0.103571
0.103553
0.103534
0.103517
0.1035
0.103484
0.103468
0.103453
0.103438
0.103424
0.10341
0.103397
0.103384
0.103371
0.103359
0.103348
0.103336
0.103325
0.103314
0.103304
0.103294
0.103284
0.103275
0.103265
0.103257
0.103248
0.103239
0.103231
0.103223
0.103215
0.103207
0.1032
0.103193
0.103186
0.103179
0.103172
0.103166
0.103159
0.103153
0.103147
0.103141
0.103135
0.10313
0.103124
0.103119
0.103113
0.103108
0.103103
0.103098
0.103094
0.103089
0.103084
0.10308
0.103076
0.103071
0.103067
0.103063
0.103059
0.103055
0.103051
0.103048
0.103044
0.10304
0.103037
0.103034
0.10303
0.103027
0.103024
0.103021
0.103018
0.103015
0.103012
0.103009
0.103006
0.103004
0.103001
0.102999
0.102996
0.102994
0.102991
0.102989
0.102987
0.102985
0.102983
0.102981
0.102979
0.102977
0.102976
0.102974
0.102974
0.140916
0.139999
0.139178
0.138419
0.137705
0.137027
0.136388
0.135787
0.135228
0.134708
0.134228
0.133783
0.133372
0.132992
0.132641
0.132315
0.132013
0.131732
0.13147
0.131227
0.130999
0.130787
0.130588
0.130401
0.130226
0.130062
0.129907
0.129761
0.129623
0.129494
0.129371
0.129255
0.129145
0.12904
0.128941
0.128847
0.128758
0.128672
0.128591
0.128514
0.12844
0.12837
0.128303
0.128238
0.128177
0.128118
0.128062
0.128007
0.127956
0.127906
0.127858
0.127812
0.127768
0.127725
0.127684
0.127645
0.127607
0.12757
0.127535
0.127501
0.127468
0.127436
0.127406
0.127376
0.127347
0.127319
0.127292
0.127266
0.127241
0.127216
0.127193
0.127169
0.127147
0.127125
0.127104
0.127084
0.127064
0.127044
0.127025
0.127007
0.126989
0.126972
0.126955
0.126938
0.126922
0.126906
0.126891
0.126876
0.126861
0.126847
0.126833
0.12682
0.126807
0.126794
0.126781
0.126769
0.126757
0.126745
0.126733
0.126722
0.126711
0.1267
0.12669
0.126679
0.126669
0.126659
0.126649
0.12664
0.126631
0.126622
0.126613
0.126604
0.126595
0.126587
0.126579
0.126571
0.126563
0.126555
0.126547
0.12654
0.126533
0.126526
0.126519
0.126512
0.126505
0.126498
0.126492
0.126485
0.126479
0.126473
0.126467
0.126461
0.126456
0.12645
0.126445
0.126439
0.126434
0.126429
0.126424
0.126419
0.126414
0.126409
0.126405
0.1264
0.126396
0.126392
0.126387
0.126384
0.12638
0.126378
0.168556
0.168048
0.167535
0.167004
0.16645
0.165874
0.165287
0.164702
0.164129
0.163576
0.163046
0.162542
0.162065
0.161615
0.16119
0.16079
0.160414
0.16006
0.159726
0.159412
0.159116
0.158837
0.158573
0.158324
0.158088
0.157865
0.157654
0.157454
0.157264
0.157083
0.156912
0.156749
0.156593
0.156446
0.156305
0.15617
0.156042
0.155919
0.155802
0.15569
0.155582
0.155479
0.155381
0.155286
0.155195
0.155108
0.155024
0.154944
0.154866
0.154792
0.15472
0.15465
0.154584
0.154519
0.154457
0.154397
0.154339
0.154283
0.154229
0.154177
0.154126
0.154077
0.154029
0.153983
0.153938
0.153895
0.153853
0.153812
0.153773
0.153734
0.153697
0.15366
0.153625
0.15359
0.153557
0.153524
0.153493
0.153462
0.153431
0.153402
0.153373
0.153345
0.153318
0.153292
0.153266
0.15324
0.153215
0.153191
0.153168
0.153144
0.153122
0.1531
0.153078
0.153057
0.153036
0.153016
0.152996
0.152977
0.152958
0.152939
0.152921
0.152903
0.152885
0.152868
0.152851
0.152835
0.152819
0.152803
0.152787
0.152772
0.152757
0.152742
0.152728
0.152714
0.1527
0.152686
0.152673
0.15266
0.152647
0.152634
0.152621
0.152609
0.152597
0.152585
0.152574
0.152562
0.152551
0.15254
0.15253
0.152519
0.152509
0.152498
0.152488
0.152479
0.152469
0.152459
0.15245
0.152441
0.152432
0.152423
0.152415
0.152406
0.152398
0.15239
0.152382
0.152374
0.152367
0.15236
0.152352
0.152348
0.198778
0.198615
0.198419
0.198168
0.197844
0.197447
0.196993
0.196498
0.195978
0.195449
0.19492
0.194399
0.19389
0.193398
0.192924
0.192469
0.192033
0.191617
0.19122
0.190842
0.190481
0.190137
0.189809
0.189497
0.189199
0.188915
0.188644
0.188386
0.188139
0.187904
0.187679
0.187463
0.187258
0.18706
0.186872
0.186691
0.186517
0.186351
0.186191
0.186038
0.185891
0.185749
0.185613
0.185482
0.185356
0.185234
0.185117
0.185004
0.184895
0.18479
0.184689
0.184591
0.184496
0.184404
0.184316
0.18423
0.184147
0.184066
0.183989
0.183913
0.18384
0.183769
0.1837
0.183633
0.183568
0.183504
0.183443
0.183383
0.183325
0.183268
0.183213
0.18316
0.183107
0.183057
0.183007
0.182959
0.182911
0.182865
0.18282
0.182777
0.182734
0.182692
0.182651
0.182611
0.182572
0.182534
0.182497
0.18246
0.182424
0.182389
0.182355
0.182322
0.182289
0.182257
0.182225
0.182194
0.182164
0.182134
0.182105
0.182077
0.182049
0.182021
0.181995
0.181968
0.181942
0.181917
0.181892
0.181867
0.181843
0.18182
0.181796
0.181774
0.181751
0.181729
0.181707
0.181686
0.181665
0.181645
0.181625
0.181605
0.181585
0.181566
0.181547
0.181529
0.18151
0.181492
0.181475
0.181457
0.18144
0.181424
0.181407
0.181391
0.181375
0.181359
0.181344
0.181329
0.181314
0.181299
0.181285
0.18127
0.181256
0.181243
0.181229
0.181216
0.181203
0.18119
0.181178
0.181166
0.181154
0.181145
0.231887
0.231985
0.232073
0.232107
0.23205
0.231889
0.231633
0.231297
0.230899
0.230458
0.229989
0.229502
0.229009
0.228516
0.228027
0.227547
0.227078
0.226621
0.226179
0.225751
0.225337
0.224939
0.224555
0.224186
0.223831
0.223489
0.223161
0.222845
0.222542
0.222251
0.22197
0.221701
0.221441
0.221192
0.220952
0.220721
0.220498
0.220284
0.220078
0.219878
0.219686
0.219501
0.219322
0.21915
0.218983
0.218822
0.218666
0.218516
0.21837
0.218229
0.218093
0.217961
0.217833
0.217709
0.217588
0.217472
0.217359
0.217249
0.217142
0.217038
0.216938
0.21684
0.216745
0.216652
0.216562
0.216474
0.216389
0.216306
0.216225
0.216146
0.216069
0.215994
0.21592
0.215849
0.215779
0.215711
0.215644
0.215579
0.215516
0.215454
0.215393
0.215334
0.215276
0.215219
0.215163
0.215109
0.215055
0.215003
0.214952
0.214902
0.214853
0.214805
0.214758
0.214711
0.214666
0.214621
0.214578
0.214535
0.214493
0.214452
0.214411
0.214371
0.214332
0.214294
0.214256
0.214219
0.214183
0.214147
0.214112
0.214077
0.214043
0.21401
0.213977
0.213944
0.213913
0.213881
0.213851
0.21382
0.213791
0.213761
0.213733
0.213704
0.213676
0.213649
0.213622
0.213595
0.213569
0.213543
0.213518
0.213492
0.213468
0.213444
0.21342
0.213396
0.213373
0.21335
0.213328
0.213306
0.213284
0.213262
0.213241
0.213221
0.2132
0.21318
0.21316
0.21314
0.213121
0.213103
0.213084
0.213069
0.268216
0.26849
0.268802
0.269091
0.269301
0.269402
0.269387
0.269264
0.269048
0.268757
0.268408
0.268014
0.26759
0.267144
0.266685
0.26622
0.265752
0.265287
0.264827
0.264374
0.26393
0.263496
0.263072
0.26266
0.262259
0.26187
0.261492
0.261126
0.260771
0.260428
0.260096
0.259774
0.259463
0.259162
0.258871
0.258589
0.258316
0.258052
0.257797
0.257549
0.25731
0.257078
0.256853
0.256636
0.256425
0.25622
0.256022
0.25583
0.255643
0.255462
0.255287
0.255116
0.25495
0.254789
0.254633
0.254481
0.254333
0.254189
0.254049
0.253913
0.25378
0.253651
0.253525
0.253402
0.253283
0.253166
0.253052
0.252941
0.252833
0.252727
0.252624
0.252523
0.252424
0.252328
0.252234
0.252142
0.252052
0.251964
0.251878
0.251793
0.251711
0.25163
0.251551
0.251473
0.251397
0.251323
0.25125
0.251178
0.251108
0.251039
0.250972
0.250906
0.250841
0.250777
0.250714
0.250653
0.250592
0.250533
0.250475
0.250417
0.250361
0.250306
0.250251
0.250198
0.250145
0.250094
0.250043
0.249993
0.249944
0.249895
0.249848
0.249801
0.249755
0.24971
0.249665
0.249621
0.249578
0.249535
0.249493
0.249452
0.249411
0.249371
0.249331
0.249292
0.249254
0.249216
0.249179
0.249142
0.249106
0.24907
0.249035
0.249001
0.248966
0.248933
0.2489
0.248867
0.248835
0.248803
0.248772
0.248741
0.24871
0.24868
0.248651
0.248622
0.248593
0.248564
0.248536
0.248509
0.248481
0.248459
0.308121
0.308496
0.308963
0.309454
0.3099
0.310255
0.310496
0.310619
0.310629
0.310539
0.310364
0.310119
0.309818
0.309473
0.309094
0.30869
0.308269
0.307835
0.307394
0.306949
0.306504
0.306061
0.305621
0.305187
0.30476
0.30434
0.303929
0.303526
0.303132
0.302747
0.302371
0.302005
0.301649
0.301302
0.300964
0.300635
0.300315
0.300003
0.2997
0.299406
0.299119
0.298841
0.29857
0.298306
0.29805
0.297801
0.297558
0.297322
0.297092
0.296868
0.296651
0.296439
0.296232
0.296031
0.295835
0.295644
0.295458
0.295276
0.295099
0.294926
0.294758
0.294593
0.294432
0.294276
0.294122
0.293973
0.293827
0.293684
0.293544
0.293407
0.293274
0.293143
0.293015
0.29289
0.292768
0.292648
0.29253
0.292415
0.292302
0.292192
0.292083
0.291977
0.291873
0.291771
0.291671
0.291572
0.291476
0.291381
0.291288
0.291197
0.291107
0.291019
0.290933
0.290848
0.290764
0.290682
0.290602
0.290522
0.290444
0.290368
0.290292
0.290218
0.290145
0.290073
0.290003
0.289933
0.289865
0.289797
0.289731
0.289666
0.289601
0.289538
0.289475
0.289414
0.289353
0.289294
0.289235
0.289177
0.28912
0.289063
0.289008
0.288953
0.288899
0.288846
0.288794
0.288742
0.288691
0.288641
0.288591
0.288542
0.288494
0.288446
0.288399
0.288353
0.288307
0.288262
0.288218
0.288174
0.28813
0.288088
0.288045
0.288004
0.287962
0.287922
0.287882
0.287842
0.287803
0.287764
0.287726
0.287693
0.351981
0.352404
0.352959
0.353587
0.354216
0.354791
0.355275
0.355648
0.355905
0.356049
0.35609
0.356041
0.355913
0.35572
0.355472
0.355179
0.354851
0.354493
0.354114
0.353717
0.353308
0.35289
0.352467
0.352041
0.351614
0.351189
0.350766
0.350346
0.349931
0.349522
0.349119
0.348723
0.348333
0.347951
0.347576
0.347209
0.346849
0.346497
0.346153
0.345816
0.345487
0.345166
0.344851
0.344544
0.344245
0.343952
0.343666
0.343386
0.343114
0.342847
0.342587
0.342332
0.342084
0.341841
0.341604
0.341372
0.341146
0.340924
0.340708
0.340496
0.340289
0.340087
0.339889
0.339695
0.339505
0.339319
0.339137
0.338959
0.338785
0.338614
0.338447
0.338283
0.338122
0.337965
0.33781
0.337659
0.33751
0.337364
0.337221
0.337081
0.336943
0.336808
0.336675
0.336545
0.336417
0.336291
0.336167
0.336046
0.335926
0.335809
0.335694
0.33558
0.335469
0.335359
0.335251
0.335145
0.33504
0.334937
0.334836
0.334737
0.334639
0.334542
0.334447
0.334353
0.334261
0.33417
0.334081
0.333993
0.333906
0.33382
0.333736
0.333653
0.333571
0.33349
0.33341
0.333331
0.333254
0.333177
0.333102
0.333028
0.332954
0.332882
0.33281
0.33274
0.33267
0.332602
0.332534
0.332467
0.332401
0.332336
0.332272
0.332208
0.332146
0.332084
0.332023
0.331962
0.331903
0.331844
0.331786
0.331728
0.331671
0.331615
0.33156
0.331505
0.331451
0.331397
0.331344
0.331292
0.33124
0.331194
0.400208
0.400641
0.401231
0.401933
0.402683
0.403424
0.404112
0.404714
0.405212
0.405601
0.405881
0.406058
0.406142
0.406143
0.406071
0.405936
0.405747
0.405513
0.40524
0.404935
0.404604
0.404252
0.403883
0.403501
0.403108
0.402708
0.402303
0.401894
0.401484
0.401074
0.400665
0.400258
0.399855
0.399455
0.399059
0.398668
0.398282
0.397902
0.397527
0.397159
0.396796
0.39644
0.39609
0.395746
0.395409
0.395078
0.394753
0.394435
0.394123
0.393816
0.393516
0.393222
0.392933
0.39265
0.392373
0.392101
0.391835
0.391574
0.391318
0.391067
0.39082
0.390579
0.390342
0.39011
0.389882
0.389659
0.38944
0.389225
0.389013
0.388806
0.388603
0.388403
0.388207
0.388015
0.387826
0.38764
0.387457
0.387278
0.387102
0.386929
0.386758
0.386591
0.386426
0.386265
0.386105
0.385949
0.385795
0.385643
0.385494
0.385347
0.385203
0.385061
0.384921
0.384783
0.384647
0.384514
0.384382
0.384252
0.384124
0.383999
0.383874
0.383752
0.383632
0.383513
0.383396
0.38328
0.383166
0.383054
0.382943
0.382834
0.382726
0.38262
0.382515
0.382412
0.38231
0.382209
0.382109
0.382011
0.381914
0.381819
0.381724
0.381631
0.381539
0.381448
0.381358
0.38127
0.381182
0.381095
0.38101
0.380926
0.380842
0.38076
0.380678
0.380598
0.380518
0.38044
0.380362
0.380285
0.380209
0.380134
0.38006
0.379987
0.379914
0.379842
0.379771
0.379701
0.379631
0.379562
0.379493
0.379432
0.453248
0.453669
0.454258
0.454979
0.455786
0.456632
0.457467
0.458255
0.458967
0.459585
0.460103
0.460518
0.460835
0.461059
0.461197
0.461258
0.461249
0.46118
0.461058
0.460888
0.460678
0.460434
0.46016
0.459861
0.459541
0.459203
0.45885
0.458486
0.458112
0.457731
0.457344
0.456953
0.45656
0.456166
0.455771
0.455377
0.454984
0.454593
0.454205
0.453821
0.453439
0.453062
0.452689
0.45232
0.451956
0.451597
0.451243
0.450893
0.450549
0.45021
0.449877
0.449548
0.449225
0.448907
0.448593
0.448286
0.447983
0.447685
0.447392
0.447103
0.44682
0.446541
0.446267
0.445998
0.445733
0.445472
0.445216
0.444963
0.444715
0.444471
0.444231
0.443995
0.443763
0.443534
0.443309
0.443088
0.44287
0.442656
0.442444
0.442237
0.442032
0.44183
0.441632
0.441437
0.441244
0.441054
0.440868
0.440684
0.440502
0.440324
0.440147
0.439974
0.439803
0.439634
0.439468
0.439304
0.439142
0.438982
0.438825
0.43867
0.438517
0.438366
0.438217
0.43807
0.437925
0.437782
0.43764
0.437501
0.437363
0.437227
0.437093
0.43696
0.436829
0.4367
0.436573
0.436447
0.436322
0.436199
0.436077
0.435957
0.435839
0.435721
0.435606
0.435491
0.435378
0.435266
0.435155
0.435046
0.434938
0.434831
0.434726
0.434621
0.434518
0.434416
0.434315
0.434215
0.434116
0.434018
0.433921
0.433826
0.433731
0.433637
0.433544
0.433452
0.433361
0.433271
0.433182
0.433093
0.433005
0.432924
0.511588
0.511985
0.51255
0.513252
0.514065
0.514952
0.515873
0.516788
0.517664
0.518477
0.519209
0.519851
0.5204
0.520856
0.521222
0.521503
0.521705
0.521835
0.521899
0.521903
0.521855
0.521758
0.52162
0.521444
0.521236
0.520999
0.520737
0.520454
0.520152
0.519834
0.519503
0.51916
0.518808
0.518448
0.518082
0.51771
0.517336
0.516958
0.516579
0.516199
0.515819
0.515439
0.515061
0.514684
0.514309
0.513937
0.513567
0.5132
0.512837
0.512477
0.51212
0.511768
0.511419
0.511074
0.510734
0.510397
0.510065
0.509737
0.509413
0.509093
0.508778
0.508467
0.508159
0.507856
0.507558
0.507263
0.506972
0.506686
0.506403
0.506124
0.505849
0.505578
0.505311
0.505047
0.504787
0.504531
0.504278
0.504028
0.503782
0.50354
0.5033
0.503064
0.502831
0.502601
0.502375
0.502151
0.50193
0.501712
0.501497
0.501285
0.501076
0.500869
0.500665
0.500464
0.500265
0.500069
0.499875
0.499684
0.499495
0.499308
0.499124
0.498942
0.498762
0.498584
0.498409
0.498235
0.498064
0.497895
0.497728
0.497562
0.497399
0.497237
0.497078
0.49692
0.496764
0.49661
0.496458
0.496307
0.496158
0.49601
0.495865
0.495721
0.495578
0.495437
0.495298
0.49516
0.495023
0.494888
0.494754
0.494622
0.494491
0.494362
0.494234
0.494107
0.493981
0.493857
0.493734
0.493612
0.493492
0.493372
0.493254
0.493137
0.493021
0.492906
0.492792
0.492679
0.492566
0.492455
0.492345
0.492243
0.575762
0.57613
0.57666
0.57732
0.578099
0.578977
0.579923
0.580903
0.581883
0.582836
0.583739
0.584575
0.585334
0.586011
0.586603
0.587111
0.587537
0.587886
0.588161
0.588368
0.588512
0.588598
0.588631
0.588617
0.588558
0.58846
0.588327
0.588163
0.58797
0.587752
0.587512
0.587252
0.586974
0.586682
0.586376
0.586059
0.585731
0.585396
0.585053
0.584704
0.584351
0.583993
0.583632
0.583269
0.582905
0.582539
0.582173
0.581807
0.581441
0.581077
0.580713
0.580352
0.579992
0.579634
0.579278
0.578925
0.578575
0.578227
0.577883
0.577541
0.577203
0.576867
0.576535
0.576206
0.575881
0.575559
0.57524
0.574924
0.574613
0.574304
0.573999
0.573697
0.573399
0.573103
0.572812
0.572523
0.572238
0.571956
0.571678
0.571402
0.57113
0.570861
0.570595
0.570332
0.570072
0.569815
0.569561
0.56931
0.569062
0.568816
0.568574
0.568334
0.568097
0.567862
0.567631
0.567401
0.567175
0.566951
0.566729
0.56651
0.566293
0.566079
0.565867
0.565658
0.56545
0.565245
0.565042
0.564842
0.564643
0.564447
0.564252
0.56406
0.56387
0.563682
0.563495
0.563311
0.563129
0.562948
0.562769
0.562592
0.562417
0.562244
0.562072
0.561902
0.561734
0.561568
0.561403
0.561239
0.561078
0.560917
0.560759
0.560602
0.560446
0.560292
0.560139
0.559988
0.559838
0.559689
0.559542
0.559396
0.559252
0.559108
0.558966
0.558825
0.558686
0.558547
0.558409
0.558273
0.558136
0.55801
0.646354
0.646691
0.647182
0.647792
0.648516
0.649347
0.650268
0.651254
0.652276
0.653308
0.654324
0.655304
0.656233
0.657098
0.657894
0.658616
0.659261
0.65983
0.660326
0.66075
0.661106
0.661398
0.661629
0.661804
0.661927
0.662001
0.662031
0.66202
0.661972
0.66189
0.661777
0.661635
0.661468
0.661278
0.661067
0.660837
0.66059
0.660328
0.660053
0.659766
0.659468
0.659161
0.658845
0.658523
0.658194
0.65786
0.657522
0.657179
0.656834
0.656486
0.656136
0.655785
0.655433
0.65508
0.654727
0.654374
0.654022
0.65367
0.653319
0.652969
0.652621
0.652274
0.651929
0.651586
0.651245
0.650905
0.650568
0.650234
0.649902
0.649572
0.649244
0.64892
0.648597
0.648278
0.647961
0.647647
0.647335
0.647027
0.64672
0.646417
0.646117
0.645819
0.645524
0.645231
0.644941
0.644654
0.64437
0.644089
0.64381
0.643533
0.64326
0.642989
0.64272
0.642454
0.642191
0.64193
0.641672
0.641416
0.641163
0.640912
0.640663
0.640417
0.640173
0.639932
0.639693
0.639456
0.639221
0.638989
0.638759
0.638531
0.638305
0.638081
0.637859
0.63764
0.637422
0.637206
0.636993
0.636781
0.636571
0.636364
0.636158
0.635954
0.635752
0.635551
0.635353
0.635156
0.634961
0.634767
0.634576
0.634386
0.634198
0.634011
0.633826
0.633642
0.63346
0.63328
0.633101
0.632923
0.632747
0.632573
0.6324
0.632228
0.632057
0.631888
0.63172
0.631553
0.631387
0.631223
0.631059
0.630906
0.724008
0.724314
0.724766
0.725325
0.725986
0.72675
0.727611
0.728556
0.729564
0.730614
0.731681
0.732746
0.733789
0.734795
0.735753
0.736655
0.737495
0.738269
0.738975
0.739613
0.740184
0.74069
0.741132
0.741514
0.741839
0.74211
0.742329
0.7425
0.742627
0.742712
0.742758
0.742768
0.742744
0.74269
0.742608
0.742499
0.742366
0.742212
0.742037
0.741844
0.741634
0.741408
0.741169
0.740917
0.740654
0.74038
0.740097
0.739806
0.739507
0.739201
0.73889
0.738573
0.738252
0.737927
0.737598
0.737266
0.736932
0.736595
0.736257
0.735918
0.735577
0.735236
0.734894
0.734553
0.734211
0.73387
0.733529
0.733188
0.732849
0.73251
0.732173
0.731836
0.731501
0.731168
0.730836
0.730506
0.730177
0.72985
0.729525
0.729202
0.728881
0.728562
0.728245
0.72793
0.727617
0.727306
0.726998
0.726691
0.726387
0.726085
0.725785
0.725487
0.725191
0.724898
0.724607
0.724318
0.724032
0.723747
0.723465
0.723185
0.722907
0.722632
0.722358
0.722087
0.721818
0.721551
0.721286
0.721024
0.720763
0.720505
0.720248
0.719994
0.719741
0.719491
0.719243
0.718996
0.718752
0.71851
0.718269
0.71803
0.717794
0.717559
0.717326
0.717095
0.716865
0.716638
0.716412
0.716188
0.715966
0.715745
0.715526
0.715309
0.715094
0.71488
0.714667
0.714456
0.714247
0.714039
0.713833
0.713629
0.713425
0.713223
0.713023
0.712824
0.712626
0.712429
0.712233
0.712039
0.711845
0.711664
0.809428
0.809705
0.810121
0.810633
0.811233
0.811923
0.812707
0.81358
0.814532
0.815547
0.816607
0.817694
0.81879
0.819879
0.820946
0.82198
0.822972
0.823914
0.824802
0.825633
0.826405
0.827116
0.827766
0.828358
0.828892
0.829369
0.829792
0.830163
0.830485
0.83076
0.83099
0.831178
0.831326
0.831438
0.831514
0.831557
0.83157
0.831555
0.831512
0.831445
0.831355
0.831244
0.831112
0.830962
0.830795
0.830613
0.830415
0.830205
0.829981
0.829747
0.829502
0.829247
0.828984
0.828712
0.828433
0.828148
0.827856
0.827559
0.827256
0.82695
0.826639
0.826325
0.826007
0.825687
0.825364
0.825039
0.824712
0.824384
0.824054
0.823723
0.823392
0.823059
0.822727
0.822394
0.822061
0.821728
0.821396
0.821064
0.820732
0.820401
0.820071
0.819742
0.819413
0.819086
0.818759
0.818434
0.81811
0.817788
0.817467
0.817147
0.816828
0.816512
0.816196
0.815883
0.815571
0.81526
0.814952
0.814644
0.814339
0.814036
0.813734
0.813434
0.813136
0.812839
0.812544
0.812252
0.811961
0.811671
0.811384
0.811098
0.810815
0.810533
0.810253
0.809974
0.809698
0.809423
0.80915
0.808879
0.80861
0.808342
0.808076
0.807812
0.80755
0.807289
0.80703
0.806773
0.806518
0.806264
0.806012
0.805761
0.805512
0.805265
0.805019
0.804775
0.804533
0.804291
0.804052
0.803814
0.803578
0.803342
0.803109
0.802876
0.802646
0.802416
0.802188
0.80196
0.801734
0.801509
0.801285
0.801074
0.903394
0.903642
0.904025
0.904495
0.905041
0.905662
0.906364
0.907151
0.90802
0.908963
0.90997