/*--------------------------------*- C++ -*----------------------------------*\
| =========                 |                                                 |
| \\      /  F ield         | OpenFOAM: The Open Source CFD Toolbox           |
|  \\    /   O peration     | Version:  5.x                                   |
|   \\  /    A nd           | Web:      www.OpenFOAM.org                      |
|    \\/     M anipulation  |                                                 |
\*---------------------------------------------------------------------------*/
FoamFile
{
    version     2.0;
    format      ascii;
    class       volVectorField;
    location    "0";
    object      U;
}
// * * * * * * * * * * * * * * * * * * * * * * * * * * * * * * * * * * * * * //

dimensions      [0 1 -1 0 0 0 0];

internalField   nonuniform List<vector> 
25800
(
(1.84489 0 -0.00102132)
(1.83071 0 2.95146e-06)
(1.82951 0 2.98051e-05)
(1.83032 0 2.69479e-05)
(1.83089 0 1.38475e-05)
(1.83162 0 8.623e-06)
(1.83236 0 5.13979e-06)
(1.83311 0 3.15922e-06)
(1.83383 0 1.72303e-06)
(1.83452 0 7.88511e-07)
(1.83518 0 1.1221e-07)
(1.83581 0 -3.60674e-07)
(1.83641 0 -7.22495e-07)
(1.83697 0 -9.93436e-07)
(1.83751 0 -1.18647e-06)
(1.83803 0 -1.32983e-06)
(1.83852 0 -1.42888e-06)
(1.83898 0 -1.50005e-06)
(1.83943 0 -1.54736e-06)
(1.83986 0 -1.57645e-06)
(1.84026 0 -1.59374e-06)
(1.84065 0 -1.59926e-06)
(1.84103 0 -1.59715e-06)
(1.84139 0 -1.58982e-06)
(1.84174 0 -1.57678e-06)
(1.84207 0 -1.5607e-06)
(1.84239 0 -1.54204e-06)
(1.8427 0 -1.52142e-06)
(1.843 0 -1.49909e-06)
(1.84328 0 -1.47606e-06)
(1.84356 0 -1.45255e-06)
(1.84383 0 -1.42851e-06)
(1.84409 0 -1.40433e-06)
(1.84435 0 -1.38024e-06)
(1.84459 0 -1.35642e-06)
(1.84483 0 -1.33282e-06)
(1.84506 0 -1.30954e-06)
(1.84529 0 -1.2867e-06)
(1.84551 0 -1.26426e-06)
(1.84572 0 -1.24249e-06)
(1.84593 0 -1.22104e-06)
(1.84613 0 -1.20024e-06)
(1.84633 0 -1.17981e-06)
(1.84652 0 -1.16006e-06)
(1.84671 0 -1.14072e-06)
(1.84689 0 -1.12197e-06)
(1.84707 0 -1.10361e-06)
(1.84725 0 -1.08583e-06)
(1.84742 0 -1.06839e-06)
(1.84759 0 -1.0515e-06)
(1.84775 0 -1.03497e-06)
(1.84792 0 -1.01895e-06)
(1.84808 0 -1.00322e-06)
(1.84823 0 -9.87946e-07)
(1.84838 0 -9.72926e-07)
(1.84853 0 -9.58385e-07)
(1.84868 0 -9.4406e-07)
(1.84882 0 -9.30177e-07)
(1.84897 0 -9.1652e-07)
(1.84911 0 -9.0321e-07)
(1.84924 0 -8.90076e-07)
(1.84938 0 -8.77314e-07)
(1.84951 0 -8.64707e-07)
(1.84964 0 -8.52442e-07)
(1.84977 0 -8.40292e-07)
(1.84989 0 -8.28469e-07)
(1.85002 0 -8.16766e-07)
(1.85014 0 -8.05351e-07)
(1.85026 0 -7.94055e-07)
(1.85037 0 -7.82984e-07)
(1.85049 0 -7.72059e-07)
(1.8506 0 -7.61368e-07)
(1.85072 0 -7.50777e-07)
(1.85083 0 -7.404e-07)
(1.85094 0 -7.3012e-07)
(1.85104 0 -7.20085e-07)
(1.85115 0 -7.10088e-07)
(1.85125 0 -7.00335e-07)
(1.85135 0 -6.90603e-07)
(1.85145 0 -6.81096e-07)
(1.85155 0 -6.71603e-07)
(1.85165 0 -6.62355e-07)
(1.85175 0 -6.53101e-07)
(1.85184 0 -6.44085e-07)
(1.85194 0 -6.3502e-07)
(1.85203 0 -6.26196e-07)
(1.85212 0 -6.17365e-07)
(1.85221 0 -6.08745e-07)
(1.85229 0 -6.00079e-07)
(1.85238 0 -5.9167e-07)
(1.85247 0 -5.83154e-07)
(1.85255 0 -5.74943e-07)
(1.85263 0 -5.66553e-07)
(1.85271 0 -5.58493e-07)
(1.85279 0 -5.50219e-07)
(1.85287 0 -5.42339e-07)
(1.85295 0 -5.34118e-07)
(1.85303 0 -5.26378e-07)
(1.8531 0 -5.18227e-07)
(1.85318 0 -5.10626e-07)
(1.85325 0 -5.02462e-07)
(1.85332 0 -4.95029e-07)
(1.85339 0 -4.86885e-07)
(1.85346 0 -4.79573e-07)
(1.85353 0 -4.71385e-07)
(1.85359 0 -4.64231e-07)
(1.85366 0 -4.55923e-07)
(1.85372 0 -4.48934e-07)
(1.85379 0 -4.40512e-07)
(1.85385 0 -4.33695e-07)
(1.85391 0 -4.25037e-07)
(1.85397 0 -4.18362e-07)
(1.85403 0 -4.09447e-07)
(1.85409 0 -4.02995e-07)
(1.85414 0 -3.93729e-07)
(1.8542 0 -3.87504e-07)
(1.85425 0 -3.7779e-07)
(1.8543 0 -3.71832e-07)
(1.85436 0 -3.61642e-07)
(1.85441 0 -3.55996e-07)
(1.85446 0 -3.45102e-07)
(1.8545 0 -3.39886e-07)
(1.85455 0 -3.28253e-07)
(1.8546 0 -3.23464e-07)
(1.85464 0 -3.10895e-07)
(1.85468 0 -3.06628e-07)
(1.85473 0 -2.92945e-07)
(1.85477 0 -2.89245e-07)
(1.8548 0 -2.74278e-07)
(1.85484 0 -2.71271e-07)
(1.85488 0 -2.54736e-07)
(1.85491 0 -2.52482e-07)
(1.85495 0 -2.34016e-07)
(1.85498 0 -2.32804e-07)
(1.85501 0 -2.11778e-07)
(1.85504 0 -2.11882e-07)
(1.85507 0 -1.87253e-07)
(1.85509 0 -1.89891e-07)
(1.85511 0 -1.5843e-07)
(1.85514 0 -1.68452e-07)
(1.85515 0 -1.192e-07)
(1.85517 0 -1.5459e-07)
(1.85518 0 -5.45561e-08)
(1.8552 0 -1.68029e-07)
(1.8552 0 6.89392e-08)
(1.85522 0 -2.58216e-07)
(1.8552 0 3.38692e-07)
(1.85523 0 -6.2691e-07)
(1.85519 0 9.57853e-07)
(1.85527 0 -2.10295e-06)
(3.40066 0 0.0038127)
(3.40656 0 0.000301558)
(3.41188 0 -5.64247e-05)
(3.41763 0 -5.72606e-05)
(3.42165 0 -5.20313e-05)
(3.42508 0 -4.79174e-05)
(3.428 0 -4.54529e-05)
(3.43057 0 -4.25331e-05)
(3.43284 0 -3.98903e-05)
(3.43489 0 -3.73562e-05)
(3.43675 0 -3.50622e-05)
(3.43845 0 -3.2964e-05)
(3.44002 0 -3.10401e-05)
(3.44146 0 -2.92952e-05)
(3.44281 0 -2.76937e-05)
(3.44406 0 -2.62412e-05)
(3.44524 0 -2.49019e-05)
(3.44634 0 -2.36757e-05)
(3.44738 0 -2.25458e-05)
(3.44836 0 -2.14993e-05)
(3.44929 0 -2.05362e-05)
(3.45018 0 -1.96403e-05)
(3.45101 0 -1.8808e-05)
(3.45181 0 -1.80372e-05)
(3.45257 0 -1.73169e-05)
(3.4533 0 -1.66454e-05)
(3.454 0 -1.60189e-05)
(3.45466 0 -1.54332e-05)
(3.45531 0 -1.48837e-05)
(3.45592 0 -1.43688e-05)
(3.45651 0 -1.38863e-05)
(3.45708 0 -1.34325e-05)
(3.45763 0 -1.3005e-05)
(3.45816 0 -1.26025e-05)
(3.45868 0 -1.22235e-05)
(3.45917 0 -1.18655e-05)
(3.45965 0 -1.1527e-05)
(3.46012 0 -1.12067e-05)
(3.46057 0 -1.09032e-05)
(3.46101 0 -1.06159e-05)
(3.46144 0 -1.03429e-05)
(3.46185 0 -1.00836e-05)
(3.46226 0 -9.83659e-06)
(3.46265 0 -9.60154e-06)
(3.46303 0 -9.3774e-06)
(3.46341 0 -9.16362e-06)
(3.46377 0 -8.95916e-06)
(3.46413 0 -8.76371e-06)
(3.46447 0 -8.57628e-06)
(3.46481 0 -8.39672e-06)
(3.46515 0 -8.22433e-06)
(3.46547 0 -8.05889e-06)
(3.46579 0 -7.89958e-06)
(3.4661 0 -7.74632e-06)
(3.46641 0 -7.59839e-06)
(3.46671 0 -7.45583e-06)
(3.467 0 -7.31795e-06)
(3.46729 0 -7.18488e-06)
(3.46757 0 -7.05599e-06)
(3.46784 0 -6.93126e-06)
(3.46812 0 -6.81014e-06)
(3.46838 0 -6.69274e-06)
(3.46864 0 -6.57856e-06)
(3.4689 0 -6.46767e-06)
(3.46915 0 -6.35962e-06)
(3.4694 0 -6.25459e-06)
(3.46965 0 -6.1521e-06)
(3.46989 0 -6.05227e-06)
(3.47012 0 -5.95472e-06)
(3.47035 0 -5.85953e-06)
(3.47058 0 -5.7664e-06)
(3.4708 0 -5.67544e-06)
(3.47103 0 -5.58631e-06)
(3.47124 0 -5.49917e-06)
(3.47146 0 -5.4137e-06)
(3.47167 0 -5.33007e-06)
(3.47187 0 -5.24791e-06)
(3.47208 0 -5.16739e-06)
(3.47228 0 -5.0882e-06)
(3.47247 0 -5.01053e-06)
(3.47267 0 -4.93406e-06)
(3.47286 0 -4.85901e-06)
(3.47305 0 -4.78501e-06)
(3.47323 0 -4.71235e-06)
(3.47341 0 -4.64063e-06)
(3.47359 0 -4.57012e-06)
(3.47377 0 -4.50046e-06)
(3.47394 0 -4.43195e-06)
(3.47411 0 -4.36415e-06)
(3.47428 0 -4.29746e-06)
(3.47445 0 -4.23134e-06)
(3.47461 0 -4.16632e-06)
(3.47477 0 -4.10167e-06)
(3.47493 0 -4.03811e-06)
(3.47508 0 -3.9748e-06)
(3.47524 0 -3.91258e-06)
(3.47539 0 -3.85033e-06)
(3.47554 0 -3.78924e-06)
(3.47568 0 -3.72794e-06)
(3.47583 0 -3.66787e-06)
(3.47597 0 -3.60729e-06)
(3.4761 0 -3.54814e-06)
(3.47624 0 -3.48814e-06)
(3.47637 0 -3.42972e-06)
(3.47651 0 -3.37013e-06)
(3.47664 0 -3.31236e-06)
(3.47676 0 -3.25288e-06)
(3.47689 0 -3.19559e-06)
(3.47701 0 -3.1361e-06)
(3.47713 0 -3.0792e-06)
(3.47725 0 -3.01934e-06)
(3.47736 0 -2.96265e-06)
(3.47748 0 -2.90222e-06)
(3.47759 0 -2.8457e-06)
(3.4777 0 -2.78444e-06)
(3.4778 0 -2.72789e-06)
(3.47791 0 -2.66545e-06)
(3.47801 0 -2.60888e-06)
(3.47811 0 -2.54498e-06)
(3.47821 0 -2.48827e-06)
(3.4783 0 -2.42242e-06)
(3.47839 0 -2.36555e-06)
(3.47848 0 -2.29735e-06)
(3.47857 0 -2.24018e-06)
(3.47866 0 -2.16901e-06)
(3.47874 0 -2.11154e-06)
(3.47882 0 -2.03662e-06)
(3.4789 0 -1.97886e-06)
(3.47897 0 -1.89924e-06)
(3.47904 0 -1.84114e-06)
(3.47911 0 -1.75586e-06)
(3.47918 0 -1.69668e-06)
(3.47924 0 -1.60468e-06)
(3.4793 0 -1.544e-06)
(3.47936 0 -1.4434e-06)
(3.47942 0 -1.3801e-06)
(3.47947 0 -1.26863e-06)
(3.47952 0 -1.20132e-06)
(3.47956 0 -1.07365e-06)
(3.4796 0 -1.00415e-06)
(3.47963 0 -8.41818e-07)
(3.47967 0 -7.92116e-07)
(3.47969 0 -5.34715e-07)
(3.47972 0 -5.91651e-07)
(3.47972 0 -1.82484e-08)
(3.47974 0 -5.11129e-07)
(3.47972 0 6.49746e-07)
(3.47976 0 -9.8782e-07)
(3.47969 0 1.63863e-06)
(3.47981 0 -5.55071e-06)
(4.22227 0 0.00333939)
(4.24386 0 -0.000140924)
(4.25622 0 -0.000337157)
(4.26718 0 -0.000265751)
(4.27502 0 -0.000214008)
(4.28144 0 -0.000180954)
(4.28673 0 -0.000157745)
(4.29125 0 -0.000139492)
(4.29516 0 -0.000125034)
(4.29861 0 -0.000113108)
(4.30168 0 -0.000103179)
(4.30445 0 -9.47591e-05)
(4.30696 0 -8.75199e-05)
(4.30925 0 -8.1247e-05)
(4.31136 0 -7.57256e-05)
(4.31331 0 -7.08574e-05)
(4.31511 0 -6.65066e-05)
(4.3168 0 -6.26101e-05)
(4.31837 0 -5.9097e-05)
(4.31984 0 -5.59071e-05)
(4.32123 0 -5.30131e-05)
(4.32254 0 -5.03657e-05)
(4.32377 0 -4.7938e-05)
(4.32494 0 -4.57133e-05)
(4.32605 0 -4.36601e-05)
(4.32711 0 -4.17636e-05)
(4.32812 0 -4.00099e-05)
(4.32908 0 -3.83841e-05)
(4.32999 0 -3.68714e-05)
(4.33087 0 -3.54634e-05)
(4.33171 0 -3.41522e-05)
(4.33252 0 -3.29271e-05)
(4.3333 0 -3.17802e-05)
(4.33404 0 -3.07058e-05)
(4.33476 0 -2.96989e-05)
(4.33546 0 -2.87528e-05)
(4.33613 0 -2.78625e-05)
(4.33678 0 -2.70236e-05)
(4.33741 0 -2.62321e-05)
(4.33801 0 -2.54855e-05)
(4.3386 0 -2.4779e-05)
(4.33917 0 -2.41103e-05)
(4.33973 0 -2.34758e-05)
(4.34027 0 -2.28737e-05)
(4.34079 0 -2.23016e-05)
(4.3413 0 -2.17576e-05)
(4.3418 0 -2.1239e-05)
(4.34229 0 -2.07446e-05)
(4.34276 0 -2.0272e-05)
(4.34322 0 -1.98204e-05)
(4.34367 0 -1.93882e-05)
(4.34411 0 -1.89743e-05)
(4.34454 0 -1.85769e-05)
(4.34496 0 -1.81955e-05)
(4.34537 0 -1.78285e-05)
(4.34577 0 -1.74754e-05)
(4.34617 0 -1.7135e-05)
(4.34655 0 -1.6807e-05)
(4.34693 0 -1.64901e-05)
(4.3473 0 -1.6184e-05)
(4.34766 0 -1.58877e-05)
(4.34802 0 -1.56008e-05)
(4.34837 0 -1.53226e-05)
(4.34871 0 -1.50528e-05)
(4.34905 0 -1.47907e-05)
(4.34938 0 -1.45361e-05)
(4.3497 0 -1.42884e-05)
(4.35002 0 -1.40474e-05)
(4.35034 0 -1.38125e-05)
(4.35064 0 -1.35835e-05)
(4.35094 0 -1.336e-05)
(4.35124 0 -1.3142e-05)
(4.35153 0 -1.29288e-05)
(4.35182 0 -1.27205e-05)
(4.3521 0 -1.25167e-05)
(4.35238 0 -1.23174e-05)
(4.35265 0 -1.21221e-05)
(4.35292 0 -1.19307e-05)
(4.35319 0 -1.1743e-05)
(4.35345 0 -1.15589e-05)
(4.3537 0 -1.13781e-05)
(4.35395 0 -1.12006e-05)
(4.3542 0 -1.10261e-05)
(4.35444 0 -1.08547e-05)
(4.35468 0 -1.06859e-05)
(4.35492 0 -1.052e-05)
(4.35515 0 -1.03564e-05)
(4.35538 0 -1.01955e-05)
(4.3556 0 -1.00366e-05)
(4.35582 0 -9.88017e-06)
(4.35604 0 -9.72561e-06)
(4.35625 0 -9.57323e-06)
(4.35647 0 -9.42243e-06)
(4.35667 0 -9.27372e-06)
(4.35688 0 -9.12633e-06)
(4.35708 0 -8.98087e-06)
(4.35727 0 -8.83634e-06)
(4.35747 0 -8.6937e-06)
(4.35766 0 -8.55167e-06)
(4.35785 0 -8.4115e-06)
(4.35803 0 -8.27149e-06)
(4.35821 0 -8.13347e-06)
(4.35839 0 -7.99514e-06)
(4.35856 0 -7.85885e-06)
(4.35874 0 -7.7218e-06)
(4.3589 0 -7.58695e-06)
(4.35907 0 -7.45063e-06)
(4.35923 0 -7.31678e-06)
(4.35939 0 -7.18084e-06)
(4.35955 0 -7.04769e-06)
(4.3597 0 -6.91148e-06)
(4.35985 0 -6.77861e-06)
(4.36 0 -6.64169e-06)
(4.36015 0 -6.50882e-06)
(4.36029 0 -6.37065e-06)
(4.36043 0 -6.23734e-06)
(4.36056 0 -6.09727e-06)
(4.3607 0 -5.96332e-06)
(4.36083 0 -5.82073e-06)
(4.36095 0 -5.68573e-06)
(4.36108 0 -5.53983e-06)
(4.3612 0 -5.40349e-06)
(4.36131 0 -5.25338e-06)
(4.36143 0 -5.11531e-06)
(4.36154 0 -4.95983e-06)
(4.36165 0 -4.81981e-06)
(4.36175 0 -4.65743e-06)
(4.36185 0 -4.51539e-06)
(4.36195 0 -4.34393e-06)
(4.36204 0 -4.19954e-06)
(4.36213 0 -4.01716e-06)
(4.36222 0 -3.86844e-06)
(4.3623 0 -3.67337e-06)
(4.36238 0 -3.5185e-06)
(4.36245 0 -3.30743e-06)
(4.36253 0 -3.14296e-06)
(4.36259 0 -2.9125e-06)
(4.36266 0 -2.73243e-06)
(4.36271 0 -2.47623e-06)
(4.36277 0 -2.27486e-06)
(4.36281 0 -1.97035e-06)
(4.36286 0 -1.76435e-06)
(4.36288 0 -1.33083e-06)
(4.36292 0 -1.2299e-06)
(4.36292 0 -2.9704e-07)
(4.36295 0 -8.05016e-07)
(4.36293 0 8.36818e-07)
(4.36297 0 -1.12816e-06)
(4.36289 0 2.02893e-06)
(4.36302 0 -8.8533e-06)
(4.79232 0 0.00190899)
(4.82164 0 -0.000852384)
(4.83963 0 -0.000809224)
(4.85495 0 -0.00063294)
(4.86632 0 -0.000498179)
(4.87561 0 -0.000412705)
(4.88329 0 -0.000351502)
(4.88981 0 -0.000305181)
(4.89544 0 -0.000269074)
(4.90036 0 -0.000240059)
(4.90473 0 -0.000216315)
(4.90863 0 -0.000196537)
(4.91215 0 -0.000179793)
(4.91535 0 -0.000165474)
(4.91828 0 -0.000153045)
(4.92097 0 -0.0001422)
(4.92345 0 -0.000132621)
(4.92575 0 -0.00012412)
(4.92789 0 -0.000116526)
(4.92989 0 -0.00010969)
(4.93176 0 -0.00010353)
(4.93352 0 -9.79378e-05)
(4.93517 0 -9.28431e-05)
(4.93674 0 -8.81991e-05)
(4.93821 0 -8.39397e-05)
(4.93961 0 -8.00254e-05)
(4.94094 0 -7.64225e-05)
(4.94221 0 -7.30975e-05)
(4.94341 0 -7.00179e-05)
(4.94456 0 -6.71626e-05)
(4.94566 0 -6.45129e-05)
(4.94671 0 -6.20468e-05)
(4.94772 0 -5.97462e-05)
(4.94869 0 -5.75978e-05)
(4.94962 0 -5.55903e-05)
(4.95051 0 -5.37097e-05)
(4.95138 0 -5.19453e-05)
(4.95221 0 -5.02873e-05)
(4.95301 0 -4.87271e-05)
(4.95379 0 -4.72587e-05)
(4.95454 0 -4.58729e-05)
(4.95526 0 -4.45643e-05)
(4.95597 0 -4.33257e-05)
(4.95665 0 -4.21529e-05)
(4.95732 0 -4.10409e-05)
(4.95796 0 -3.99855e-05)
(4.95859 0 -3.89819e-05)
(4.9592 0 -3.80269e-05)
(4.95979 0 -3.71162e-05)
(4.96037 0 -3.62474e-05)
(4.96093 0 -3.54175e-05)
(4.96148 0 -3.46243e-05)
(4.96202 0 -3.38644e-05)
(4.96254 0 -3.31362e-05)
(4.96305 0 -3.2437e-05)
(4.96355 0 -3.17654e-05)
(4.96404 0 -3.11191e-05)
(4.96452 0 -3.04973e-05)
(4.96499 0 -2.98978e-05)
(4.96544 0 -2.93197e-05)
(4.96589 0 -2.8761e-05)
(4.96633 0 -2.82211e-05)
(4.96676 0 -2.76984e-05)
(4.96718 0 -2.71922e-05)
(4.9676 0 -2.67012e-05)
(4.968 0 -2.62252e-05)
(4.9684 0 -2.57626e-05)
(4.96879 0 -2.53133e-05)
(4.96918 0 -2.4876e-05)
(4.96955 0 -2.44504e-05)
(4.96992 0 -2.40357e-05)
(4.97029 0 -2.36314e-05)
(4.97064 0 -2.32368e-05)
(4.97099 0 -2.28518e-05)
(4.97134 0 -2.24756e-05)
(4.97168 0 -2.2108e-05)
(4.97201 0 -2.17483e-05)
(4.97233 0 -2.13963e-05)
(4.97266 0 -2.10515e-05)
(4.97297 0 -2.07136e-05)
(4.97328 0 -2.03823e-05)
(4.97359 0 -2.00572e-05)
(4.97389 0 -1.97381e-05)
(4.97418 0 -1.94248e-05)
(4.97447 0 -1.91168e-05)
(4.97476 0 -1.8814e-05)
(4.97504 0 -1.85162e-05)
(4.97532 0 -1.82231e-05)
(4.97559 0 -1.79344e-05)
(4.97586 0 -1.76499e-05)
(4.97612 0 -1.73694e-05)
(4.97638 0 -1.70928e-05)
(4.97663 0 -1.68197e-05)
(4.97688 0 -1.65501e-05)
(4.97713 0 -1.62836e-05)
(4.97737 0 -1.60202e-05)
(4.97761 0 -1.57594e-05)
(4.97784 0 -1.55014e-05)
(4.97807 0 -1.52455e-05)
(4.9783 0 -1.49923e-05)
(4.97852 0 -1.47406e-05)
(4.97874 0 -1.44914e-05)
(4.97895 0 -1.42431e-05)
(4.97916 0 -1.39972e-05)
(4.97937 0 -1.37517e-05)
(4.97957 0 -1.35085e-05)
(4.97977 0 -1.32649e-05)
(4.97997 0 -1.30235e-05)
(4.98016 0 -1.2781e-05)
(4.98035 0 -1.25409e-05)
(4.98054 0 -1.22986e-05)
(4.98072 0 -1.20589e-05)
(4.9809 0 -1.18159e-05)
(4.98107 0 -1.15761e-05)
(4.98124 0 -1.13316e-05)
(4.98141 0 -1.10908e-05)
(4.98157 0 -1.08437e-05)
(4.98173 0 -1.06013e-05)
(4.98189 0 -1.03506e-05)
(4.98204 0 -1.01058e-05)
(4.98219 0 -9.85031e-06)
(4.98233 0 -9.60248e-06)
(4.98247 0 -9.3406e-06)
(4.98261 0 -9.0889e-06)
(4.98274 0 -8.81883e-06)
(4.98288 0 -8.56266e-06)
(4.983 0 -8.28189e-06)
(4.98312 0 -8.02098e-06)
(4.98324 0 -7.72583e-06)
(4.98335 0 -7.4595e-06)
(4.98346 0 -7.1467e-06)
(4.98357 0 -6.87133e-06)
(4.98367 0 -6.53831e-06)
(4.98376 0 -6.24998e-06)
(4.98385 0 -5.89178e-06)
(4.98394 0 -5.58359e-06)
(4.98402 0 -5.19568e-06)
(4.9841 0 -4.85488e-06)
(4.98417 0 -4.43076e-06)
(4.98423 0 -4.03956e-06)
(4.98429 0 -3.55506e-06)
(4.98435 0 -3.11586e-06)
(4.98438 0 -2.47558e-06)
(4.98443 0 -2.10805e-06)
(4.98444 0 -7.77366e-07)
(4.98448 0 -1.15967e-06)
(4.98445 0 9.50816e-07)
(4.98449 0 -1.11848e-06)
(4.98442 0 2.21669e-06)
(4.98454 0 -1.22794e-05)
(5.23833 0 0.00055404)
(5.26808 0 -0.00174504)
(5.28879 0 -0.00146344)
(5.3068 0 -0.00115838)
(5.32077 0 -0.00091376)
(5.33237 0 -0.000755167)
(5.34208 0 -0.000639269)
(5.35039 0 -0.000551689)
(5.35759 0 -0.000483332)
(5.36392 0 -0.000428642)
(5.36953 0 -0.000384025)
(5.37455 0 -0.000347022)
(5.37907 0 -0.000315842)
(5.38318 0 -0.000289287)
(5.38693 0 -0.000266358)
(5.39038 0 -0.000246428)
(5.39355 0 -0.000228915)
(5.39649 0 -0.000213435)
(5.39922 0 -0.000199663)
(5.40176 0 -0.00018732)
(5.40414 0 -0.000176234)
(5.40637 0 -0.00016621)
(5.40846 0 -0.00015711)
(5.41044 0 -0.000148838)
(5.4123 0 -0.000141277)
(5.41406 0 -0.000134349)
(5.41573 0 -0.000127989)
(5.41732 0 -0.000122135)
(5.41882 0 -0.000116729)
(5.42026 0 -0.000111727)
(5.42163 0 -0.000107096)
(5.42294 0 -0.000102795)
(5.42419 0 -9.8793e-05)
(5.42539 0 -9.50628e-05)
(5.42655 0 -9.15835e-05)
(5.42765 0 -8.8331e-05)
(5.42872 0 -8.52852e-05)
(5.42974 0 -8.24284e-05)
(5.43073 0 -7.97451e-05)
(5.43168 0 -7.72237e-05)
(5.4326 0 -7.48486e-05)
(5.43349 0 -7.26092e-05)
(5.43435 0 -7.04936e-05)
(5.43519 0 -6.84935e-05)
(5.436 0 -6.66001e-05)
(5.43678 0 -6.48059e-05)
(5.43754 0 -6.31026e-05)
(5.43828 0 -6.14842e-05)
(5.439 0 -5.99436e-05)
(5.4397 0 -5.84761e-05)
(5.44038 0 -5.70764e-05)
(5.44104 0 -5.57404e-05)
(5.44169 0 -5.44627e-05)
(5.44232 0 -5.32402e-05)
(5.44293 0 -5.20683e-05)
(5.44353 0 -5.09443e-05)
(5.44412 0 -4.98644e-05)
(5.44469 0 -4.88268e-05)
(5.44525 0 -4.78281e-05)
(5.4458 0 -4.68663e-05)
(5.44633 0 -4.59384e-05)
(5.44686 0 -4.50429e-05)
(5.44737 0 -4.41774e-05)
(5.44787 0 -4.33404e-05)
(5.44836 0 -4.25298e-05)
(5.44885 0 -4.17448e-05)
(5.44932 0 -4.09834e-05)
(5.44978 0 -4.02447e-05)
(5.45024 0 -3.95268e-05)
(5.45068 0 -3.88291e-05)
(5.45112 0 -3.81501e-05)
(5.45155 0 -3.74892e-05)
(5.45197 0 -3.6845e-05)
(5.45238 0 -3.62171e-05)
(5.45279 0 -3.56044e-05)
(5.45319 0 -3.50064e-05)
(5.45358 0 -3.44221e-05)
(5.45397 0 -3.38508e-05)
(5.45434 0 -3.3292e-05)
(5.45472 0 -3.2745e-05)
(5.45508 0 -3.22093e-05)
(5.45544 0 -3.16842e-05)
(5.45579 0 -3.11694e-05)
(5.45614 0 -3.06643e-05)
(5.45648 0 -3.01686e-05)
(5.45681 0 -2.96815e-05)
(5.45714 0 -2.9203e-05)
(5.45747 0 -2.87324e-05)
(5.45779 0 -2.82695e-05)
(5.4581 0 -2.78136e-05)
(5.45841 0 -2.73647e-05)
(5.45871 0 -2.69221e-05)
(5.45901 0 -2.64859e-05)
(5.4593 0 -2.60552e-05)
(5.45959 0 -2.56303e-05)
(5.45987 0 -2.52102e-05)
(5.46015 0 -2.47951e-05)
(5.46042 0 -2.43843e-05)
(5.46069 0 -2.39779e-05)
(5.46095 0 -2.35752e-05)
(5.46121 0 -2.3176e-05)
(5.46147 0 -2.27802e-05)
(5.46172 0 -2.23873e-05)
(5.46197 0 -2.19972e-05)
(5.46221 0 -2.16093e-05)
(5.46245 0 -2.12238e-05)
(5.46268 0 -2.08396e-05)
(5.46291 0 -2.04574e-05)
(5.46313 0 -2.00757e-05)
(5.46335 0 -1.96958e-05)
(5.46357 0 -1.93152e-05)
(5.46378 0 -1.89362e-05)
(5.46399 0 -1.85555e-05)
(5.46419 0 -1.81763e-05)
(5.46439 0 -1.77941e-05)
(5.46459 0 -1.74134e-05)
(5.46478 0 -1.70281e-05)
(5.46496 0 -1.66449e-05)
(5.46514 0 -1.6255e-05)
(5.46532 0 -1.58678e-05)
(5.4655 0 -1.54715e-05)
(5.46567 0 -1.50792e-05)
(5.46583 0 -1.46743e-05)
(5.46599 0 -1.42755e-05)
(5.46615 0 -1.38593e-05)
(5.4663 0 -1.34528e-05)
(5.46645 0 -1.30216e-05)
(5.46659 0 -1.26068e-05)
(5.46673 0 -1.21553e-05)
(5.46686 0 -1.17311e-05)
(5.46699 0 -1.12541e-05)
(5.46711 0 -1.0815e-05)
(5.46723 0 -1.03086e-05)
(5.46735 0 -9.84812e-06)
(5.46745 0 -9.30575e-06)
(5.46756 0 -8.81259e-06)
(5.46765 0 -8.22842e-06)
(5.46775 0 -7.68154e-06)
(5.46783 0 -7.04921e-06)
(5.46791 0 -6.41574e-06)
(5.46797 0 -5.71039e-06)
(5.46805 0 -4.973e-06)
(5.46809 0 -4.08704e-06)
(5.46815 0 -3.36592e-06)
(5.46817 0 -1.6075e-06)
(5.46822 0 -1.7323e-06)
(5.4682 0 8.94924e-07)
(5.46825 0 -1.17101e-06)
(5.46818 0 2.24598e-06)
(5.4683 0 -1.57725e-05)
(5.61289 0 -0.000615198)
(5.63868 0 -0.00271173)
(5.65947 0 -0.00224805)
(5.67844 0 -0.00181293)
(5.69385 0 -0.00144911)
(5.707 0 -0.00120532)
(5.71821 0 -0.0010228)
(5.72793 0 -0.000883329)
(5.73644 0 -0.000773487)
(5.74396 0 -0.000685196)
(5.75068 0 -0.000612901)
(5.75671 0 -0.00055282)
(5.76217 0 -0.000502142)
(5.76713 0 -0.000458953)
(5.77168 0 -0.00042168)
(5.77585 0 -0.000389288)
(5.7797 0 -0.000360856)
(5.78327 0 -0.000335747)
(5.78658 0 -0.000313435)
(5.78967 0 -0.000293469)
(5.79256 0 -0.000275553)
(5.79527 0 -0.00025938)
(5.79781 0 -0.000244718)
(5.80021 0 -0.000231404)
(5.80246 0 -0.000219255)
(5.8046 0 -0.000208136)
(5.80662 0 -0.000197941)
(5.80854 0 -0.000188569)
(5.81037 0 -0.000179925)
(5.8121 0 -0.000171938)
(5.81376 0 -0.000164551)
(5.81534 0 -0.000157699)
(5.81685 0 -0.00015133)
(5.81829 0 -0.000145401)
(5.81968 0 -0.000139876)
(5.82101 0 -0.000134718)
(5.82228 0 -0.000129892)
(5.82351 0 -0.000125371)
(5.8247 0 -0.00012113)
(5.82584 0 -0.000117148)
(5.82694 0 -0.000113401)
(5.828 0 -0.000109872)
(5.82902 0 -0.000106543)
(5.83002 0 -0.000103398)
(5.83098 0 -0.000100424)
(5.83191 0 -9.76094e-05)
(5.83281 0 -9.49401e-05)
(5.83369 0 -9.24068e-05)
(5.83454 0 -8.99981e-05)
(5.83537 0 -8.77063e-05)
(5.83617 0 -8.55229e-05)
(5.83696 0 -8.34412e-05)
(5.83772 0 -8.14528e-05)
(5.83846 0 -7.95525e-05)
(5.83919 0 -7.77332e-05)
(5.83989 0 -7.59904e-05)
(5.84058 0 -7.43182e-05)
(5.84125 0 -7.27132e-05)
(5.84191 0 -7.11704e-05)
(5.84255 0 -6.96864e-05)
(5.84318 0 -6.82567e-05)
(5.84379 0 -6.68787e-05)
(5.84439 0 -6.55484e-05)
(5.84498 0 -6.42637e-05)
(5.84555 0 -6.30212e-05)
(5.84611 0 -6.18194e-05)
(5.84666 0 -6.06552e-05)
(5.8472 0 -5.9527e-05)
(5.84773 0 -5.84322e-05)
(5.84825 0 -5.73695e-05)
(5.84876 0 -5.63366e-05)
(5.84926 0 -5.53323e-05)
(5.84975 0 -5.43548e-05)
(5.85023 0 -5.34031e-05)
(5.8507 0 -5.24756e-05)
(5.85116 0 -5.15713e-05)
(5.85161 0 -5.06888e-05)
(5.85206 0 -4.98271e-05)
(5.8525 0 -4.89851e-05)
(5.85292 0 -4.81618e-05)
(5.85335 0 -4.73563e-05)
(5.85376 0 -4.65678e-05)
(5.85417 0 -4.57955e-05)
(5.85457 0 -4.50385e-05)
(5.85496 0 -4.42964e-05)
(5.85535 0 -4.3568e-05)
(5.85573 0 -4.28532e-05)
(5.8561 0 -4.21507e-05)
(5.85647 0 -4.14605e-05)
(5.85683 0 -4.07814e-05)
(5.85718 0 -4.01135e-05)
(5.85753 0 -3.94553e-05)
(5.85787 0 -3.88074e-05)
(5.85821 0 -3.81681e-05)
(5.85854 0 -3.75382e-05)
(5.85886 0 -3.69157e-05)
(5.85918 0 -3.63015e-05)
(5.8595 0 -3.56938e-05)
(5.85981 0 -3.50935e-05)
(5.86011 0 -3.44987e-05)
(5.86041 0 -3.39103e-05)
(5.8607 0 -3.33266e-05)
(5.86099 0 -3.27485e-05)
(5.86127 0 -3.2174e-05)
(5.86155 0 -3.16043e-05)
(5.86182 0 -3.10374e-05)
(5.86209 0 -3.04742e-05)
(5.86235 0 -2.99128e-05)
(5.86261 0 -2.93544e-05)
(5.86286 0 -2.8797e-05)
(5.86311 0 -2.82413e-05)
(5.86335 0 -2.76859e-05)
(5.86359 0 -2.71312e-05)
(5.86383 0 -2.6576e-05)
(5.86405 0 -2.60202e-05)
(5.86428 0 -2.54633e-05)
(5.8645 0 -2.49044e-05)
(5.86471 0 -2.43441e-05)
(5.86492 0 -2.37798e-05)
(5.86513 0 -2.3214e-05)
(5.86533 0 -2.26419e-05)
(5.86552 0 -2.20687e-05)
(5.86571 0 -2.14856e-05)
(5.8659 0 -2.0903e-05)
(5.86608 0 -2.03053e-05)
(5.86626 0 -1.97113e-05)
(5.86643 0 -1.9094e-05)
(5.86659 0 -1.84874e-05)
(5.86675 0 -1.78434e-05)
(5.86691 0 -1.72222e-05)
(5.86705 0 -1.65442e-05)
(5.8672 0 -1.59015e-05)
(5.86734 0 -1.51833e-05)
(5.86747 0 -1.45095e-05)
(5.8676 0 -1.37427e-05)
(5.86772 0 -1.30214e-05)
(5.86783 0 -1.21988e-05)
(5.86794 0 -1.13994e-05)
(5.86804 0 -1.05147e-05)
(5.86814 0 -9.58702e-06)
(5.86822 0 -8.6148e-06)
(5.86831 0 -7.51819e-06)
(5.86836 0 -6.3397e-06)
(5.86844 0 -5.18608e-06)
(5.86847 0 -2.98046e-06)
(5.86853 0 -2.70881e-06)
(5.86852 0 5.21018e-07)
(5.86858 0 -1.48002e-06)
(5.86852 0 2.04154e-06)
(5.86864 0 -1.94635e-05)
(5.94147 0 -0.00153245)
(5.96137 0 -0.00363638)
(5.98033 0 -0.003093)
(5.99874 0 -0.00255538)
(6.01451 0 -0.00208123)
(6.02837 0 -0.00175048)
(6.04046 0 -0.00149604)
(6.05113 0 -0.00129827)
(6.06059 0 -0.0011404)
(6.06905 0 -0.0010123)
(6.07666 0 -0.000906615)
(6.08354 0 -0.000818271)
(6.0898 0 -0.000743426)
(6.09552 0 -0.000679409)
(6.10078 0 -0.000624026)
(6.10562 0 -0.000575787)
(6.1101 0 -0.000533387)
(6.11426 0 -0.000495896)
(6.11813 0 -0.000462554)
(6.12175 0 -0.000432704)
(6.12513 0 -0.000405902)
(6.1283 0 -0.000381706)
(6.13129 0 -0.000359769)
(6.1341 0 -0.000339844)
(6.13675 0 -0.000321664)
(6.13926 0 -0.000305029)
(6.14164 0 -0.000289778)
(6.1439 0 -0.000275759)
(6.14604 0 -0.000262834)
(6.14809 0 -0.000250896)
(6.15003 0 -0.000239854)
(6.15189 0 -0.000229617)
(6.15366 0 -0.000220106)
(6.15536 0 -0.000211255)
(6.15699 0 -0.00020301)
(6.15855 0 -0.000195314)
(6.16005 0 -0.000188119)
(6.16149 0 -0.000181381)
(6.16288 0 -0.000175063)
(6.16421 0 -0.000169134)
(6.1655 0 -0.000163558)
(6.16675 0 -0.00015831)
(6.16795 0 -0.00015336)
(6.16911 0 -0.000148689)
(6.17023 0 -0.000144274)
(6.17132 0 -0.000140097)
(6.17237 0 -0.000136139)
(6.17339 0 -0.000132386)
(6.17439 0 -0.00012882)
(6.17535 0 -0.000125429)
(6.17629 0 -0.000122201)
(6.1772 0 -0.000119126)
(6.17808 0 -0.000116192)
(6.17894 0 -0.00011339)
(6.17978 0 -0.000110709)
(6.1806 0 -0.000108144)
(6.1814 0 -0.000105685)
(6.18218 0 -0.000103327)
(6.18293 0 -0.000101062)
(6.18368 0 -9.88862e-05)
(6.1844 0 -9.6792e-05)
(6.18511 0 -9.47755e-05)
(6.1858 0 -9.2831e-05)
(6.18648 0 -9.0955e-05)
(6.18714 0 -8.91427e-05)
(6.18778 0 -8.73915e-05)
(6.18842 0 -8.5697e-05)
(6.18904 0 -8.40567e-05)
(6.18965 0 -8.24667e-05)
(6.19024 0 -8.0925e-05)
(6.19083 0 -7.94282e-05)
(6.1914 0 -7.79745e-05)
(6.19196 0 -7.65611e-05)
(6.19251 0 -7.51864e-05)
(6.19305 0 -7.38483e-05)
(6.19358 0 -7.25449e-05)
(6.1941 0 -7.12744e-05)
(6.1946 0 -7.0035e-05)
(6.1951 0 -6.88254e-05)
(6.1956 0 -6.76438e-05)
(6.19608 0 -6.64892e-05)
(6.19655 0 -6.53598e-05)
(6.19702 0 -6.42549e-05)
(6.19747 0 -6.3173e-05)
(6.19792 0 -6.21135e-05)
(6.19836 0 -6.10744e-05)
(6.19879 0 -6.00559e-05)
(6.19922 0 -5.90557e-05)
(6.19964 0 -5.80741e-05)
(6.20005 0 -5.7109e-05)
(6.20045 0 -5.61609e-05)
(6.20085 0 -5.52274e-05)
(6.20124 0 -5.43094e-05)
(6.20162 0 -5.34043e-05)
(6.202 0 -5.25135e-05)
(6.20237 0 -5.16337e-05)
(6.20273 0 -5.07668e-05)
(6.20309 0 -4.99094e-05)
(6.20344 0 -4.90637e-05)
(6.20378 0 -4.82259e-05)
(6.20412 0 -4.73985e-05)
(6.20446 0 -4.65777e-05)
(6.20478 0 -4.57661e-05)
(6.2051 0 -4.49597e-05)
(6.20542 0 -4.41615e-05)
(6.20573 0 -4.33668e-05)
(6.20603 0 -4.25793e-05)
(6.20633 0 -4.17936e-05)
(6.20663 0 -4.10142e-05)
(6.20691 0 -4.02352e-05)
(6.2072 0 -3.94612e-05)
(6.20747 0 -3.86861e-05)
(6.20774 0 -3.7915e-05)
(6.20801 0 -3.71412e-05)
(6.20827 0 -3.63702e-05)
(6.20853 0 -3.5595e-05)
(6.20878 0 -3.48213e-05)
(6.20902 0 -3.40421e-05)
(6.20926 0 -3.32628e-05)
(6.2095 0 -3.24768e-05)
(6.20972 0 -3.16883e-05)
(6.20995 0 -3.08927e-05)
(6.21016 0 -3.00912e-05)
(6.21038 0 -2.9283e-05)
(6.21058 0 -2.84635e-05)
(6.21079 0 -2.76399e-05)
(6.21098 0 -2.67959e-05)
(6.21117 0 -2.59548e-05)
(6.21135 0 -2.50774e-05)
(6.21153 0 -2.42157e-05)
(6.2117 0 -2.32952e-05)
(6.21187 0 -2.24043e-05)
(6.21203 0 -2.14315e-05)
(6.21219 0 -2.04989e-05)
(6.21233 0 -1.94626e-05)
(6.21248 0 -1.84662e-05)
(6.21261 0 -1.7358e-05)
(6.21274 0 -1.62562e-05)
(6.21286 0 -1.507e-05)
(6.21297 0 -1.37935e-05)
(6.21307 0 -1.25027e-05)
(6.21318 0 -1.09848e-05)
(6.21325 0 -9.46048e-06)
(6.21334 0 -7.7954e-06)
(6.21339 0 -5.13046e-06)
(6.21347 0 -4.31261e-06)
(6.21347 0 -3.74652e-07)
(6.21354 0 -2.26944e-06)
(6.21349 0 1.44421e-06)
(6.21362 0 -2.35219e-05)
(6.23778 0 -0.00219498)
(6.2518 0 -0.00444703)
(6.26765 0 -0.00393173)
(6.28433 0 -0.0033403)
(6.29953 0 -0.00278037)
(6.31333 0 -0.00237091)
(6.32568 0 -0.00204655)
(6.33681 0 -0.00178915)
(6.34682 0 -0.0015803)
(6.35589 0 -0.00140871)
(6.36414 0 -0.00126568)
(6.37166 0 -0.00114513)
(6.37855 0 -0.00104233)
(6.38489 0 -0.000953888)
(6.39074 0 -0.000877035)
(6.39616 0 -0.000809829)
(6.40119 0 -0.000750573)
(6.40588 0 -0.000698034)
(6.41025 0 -0.0006512)
(6.41435 0 -0.000609195)
(6.41819 0 -0.000571411)
(6.4218 0 -0.000537254)
(6.42521 0 -0.000506249)
(6.42842 0 -0.000478053)
(6.43145 0 -0.000452305)
(6.43433 0 -0.000428727)
(6.43705 0 -0.000407092)
(6.43964 0 -0.000387193)
(6.4421 0 -0.000368838)
(6.44445 0 -0.000351875)
(6.44668 0 -0.00033618)
(6.44882 0 -0.000321623)
(6.45086 0 -0.000308095)
(6.45281 0 -0.000295502)
(6.45469 0 -0.000283769)
(6.45648 0 -0.000272816)
(6.45821 0 -0.000262574)
(6.45987 0 -0.000252983)
(6.46146 0 -0.000243989)
(6.463 0 -0.000235548)
(6.46448 0 -0.000227612)
(6.46591 0 -0.000220141)
(6.46729 0 -0.000213098)
(6.46863 0 -0.000206451)
(6.46992 0 -0.00020017)
(6.47117 0 -0.00019423)
(6.47238 0 -0.000188603)
(6.47355 0 -0.000183267)
(6.47469 0 -0.0001782)
(6.4758 0 -0.000173385)
(6.47687 0 -0.000168802)
(6.47792 0 -0.000164439)
(6.47893 0 -0.000160277)
(6.47992 0 -0.000156304)
(6.48088 0 -0.000152507)
(6.48182 0 -0.000148874)
(6.48273 0 -0.000145395)
(6.48362 0 -0.00014206)
(6.48449 0 -0.000138861)
(6.48533 0 -0.000135788)
(6.48616 0 -0.000132833)
(6.48697 0 -0.00012999)
(6.48776 0 -0.00012725)
(6.48853 0 -0.00012461)
(6.48928 0 -0.000122061)
(6.49002 0 -0.0001196)
(6.49074 0 -0.000117221)
(6.49145 0 -0.00011492)
(6.49214 0 -0.000112691)
(6.49281 0 -0.000110533)
(6.49348 0 -0.000108439)
(6.49413 0 -0.000106407)
(6.49476 0 -0.000104433)
(6.49539 0 -0.000102516)
(6.496 0 -0.000100651)
(6.4966 0 -9.88358e-05)
(6.49719 0 -9.70683e-05)
(6.49777 0 -9.53459e-05)
(6.49833 0 -9.36664e-05)
(6.49889 0 -9.20273e-05)
(6.49944 0 -9.04271e-05)
(6.49997 0 -8.88634e-05)
(6.5005 0 -8.73351e-05)
(6.50101 0 -8.58398e-05)
(6.50152 0 -8.43768e-05)
(6.50202 0 -8.29435e-05)
(6.50251 0 -8.15397e-05)
(6.50299 0 -8.01625e-05)
(6.50346 0 -7.88122e-05)
(6.50393 0 -7.74856e-05)
(6.50438 0 -7.61837e-05)
(6.50483 0 -7.49029e-05)
(6.50527 0 -7.36446e-05)
(6.5057 0 -7.24049e-05)
(6.50613 0 -7.11859e-05)
(6.50655 0 -6.99831e-05)
(6.50696 0 -6.87991e-05)
(6.50736 0 -6.76288e-05)
(6.50776 0 -6.64758e-05)
(6.50815 0 -6.53343e-05)
(6.50853 0 -6.42084e-05)
(6.50891 0 -6.30919e-05)
(6.50927 0 -6.19896e-05)
(6.50964 0 -6.08945e-05)
(6.50999 0 -5.98123e-05)
(6.51034 0 -5.8735e-05)
(6.51069 0 -5.76691e-05)
(6.51103 0 -5.66059e-05)
(6.51136 0 -5.55531e-05)
(6.51168 0 -5.45004e-05)
(6.512 0 -5.3457e-05)
(6.51231 0 -5.24113e-05)
(6.51262 0 -5.13738e-05)
(6.51292 0 -5.03316e-05)
(6.51322 0 -4.92963e-05)
(6.51351 0 -4.82537e-05)
(6.51379 0 -4.7217e-05)
(6.51407 0 -4.61705e-05)
(6.51434 0 -4.51284e-05)
(6.5146 0 -4.40741e-05)
(6.51486 0 -4.30222e-05)
(6.51512 0 -4.19563e-05)
(6.51536 0 -4.08895e-05)
(6.51561 0 -3.98078e-05)
(6.51584 0 -3.87197e-05)
(6.51607 0 -3.76186e-05)
(6.51629 0 -3.65011e-05)
(6.51651 0 -3.5377e-05)
(6.51672 0 -3.42191e-05)