# Residuals  
# Time       	p_rgh        	Ux           	Uy           	Uz           	SF6          
0.1          	9.793060e-01	1.244630e-04	1.596590e-01	9.986910e-01	1.000000e+00
0.2          	3.501490e-01	3.112630e-05	1.137080e-01	4.812970e-02	4.796250e-02
0.3          	1.407130e-01	2.070120e-05	2.528560e-02	7.111320e-02	2.927170e-02
0.4          	1.163200e-01	1.902760e-05	1.704450e-02	7.602310e-03	2.511780e-02
0.5          	9.986090e-02	1.744030e-05	1.165130e-02	6.984670e-03	2.064730e-02
0.6          	9.037560e-02	1.661980e-05	9.438230e-03	6.882170e-03	1.729120e-02
0.7          	8.207720e-02	1.619740e-05	8.268240e-03	6.860480e-03	1.463340e-02
0.8          	7.453860e-02	1.595760e-05	7.487190e-03	6.840790e-03	1.264540e-02
0.9          	6.778390e-02	1.584630e-05	6.900610e-03	6.810430e-03	1.108790e-02
1            	6.214270e-02	1.584470e-05	6.458090e-03	6.772880e-03	9.826400e-03
1.1          	5.826670e-02	1.564510e-05	6.069710e-03	6.915330e-03	8.856830e-03
1.2          	5.552450e-02	1.580270e-05	5.785100e-03	6.887540e-03	8.130240e-03
1.3          	5.354440e-02	1.598280e-05	5.524490e-03	6.914090e-03	7.556310e-03
1.4          	5.204570e-02	1.623300e-05	5.264650e-03	6.921290e-03	7.040000e-03
1.5          	5.092080e-02	1.649050e-05	5.023730e-03	6.938600e-03	6.651980e-03
1.6          	4.999180e-02	1.672920e-05	4.800220e-03	6.922130e-03	6.268540e-03
1.7          	4.921700e-02	1.697300e-05	4.598450e-03	6.887600e-03	5.948250e-03
1.8          	4.856820e-02	1.718530e-05	4.420450e-03	6.814140e-03	5.656180e-03
1.9          	4.804240e-02	1.740450e-05	4.241590e-03	6.739380e-03	5.391670e-03
2            	4.759440e-02	1.757700e-05	4.071020e-03	6.656120e-03	5.157550e-03
2.1          	4.724820e-02	1.769360e-05	3.910310e-03	6.547810e-03	4.936240e-03
2.2          	4.703760e-02	1.772330e-05	3.764250e-03	6.432060e-03	4.762530e-03
2.3          	4.686960e-02	1.771400e-05	3.621920e-03	6.368720e-03	4.586870e-03
2.4          	4.670380e-02	1.764910e-05	3.488370e-03	6.238790e-03	4.421880e-03
2.5          	4.650550e-02	1.756150e-05	3.355680e-03	6.103690e-03	4.268320e-03
2.6          	4.632930e-02	1.745580e-05	3.224600e-03	5.962080e-03	4.113680e-03
2.7          	4.619140e-02	1.734180e-05	3.093550e-03	5.820520e-03	3.946770e-03
2.8          	4.609680e-02	1.728490e-05	2.974290e-03	5.624180e-03	3.834220e-03
2.9          	4.601660e-02	1.723340e-05	2.851230e-03	5.479520e-03	3.683860e-03
3            	4.595500e-02	1.729110e-05	2.736840e-03	5.303850e-03	3.557720e-03
3.1          	4.584590e-02	1.740310e-05	2.617100e-03	5.143490e-03	3.420830e-03
3.2          	4.575720e-02	1.762030e-05	2.503260e-03	4.969930e-03	3.304910e-03
3.3          	4.561560e-02	1.780010e-05	2.388810e-03	4.814300e-03	3.176290e-03
3.4          	4.548750e-02	1.789970e-05	2.275810e-03	4.662060e-03	3.037750e-03
3.5          	4.531320e-02	1.791370e-05	2.163840e-03	4.517220e-03	2.898570e-03
3.6          	4.513270e-02	1.776870e-05	2.051280e-03	4.379640e-03	2.736590e-03
3.7          	4.494850e-02	1.756450e-05	1.939010e-03	4.239180e-03	2.574570e-03
3.8          	4.483370e-02	1.735900e-05	1.833720e-03	4.059220e-03	2.441880e-03
3.9          	4.462730e-02	1.698590e-05	1.720250e-03	3.889380e-03	2.277670e-03
4            	4.446030e-02	1.657720e-05	1.612390e-03	3.692050e-03	2.143820e-03
4.1          	4.424490e-02	1.608690e-05	1.509400e-03	3.527380e-03	1.976700e-03
4.2          	4.402140e-02	1.544830e-05	1.400580e-03	3.270490e-03	1.849600e-03
4.3          	4.379120e-02	1.481710e-05	1.297010e-03	3.061870e-03	1.691590e-03
4.4          	4.354230e-02	1.415350e-05	1.204680e-03	2.899780e-03	1.566990e-03
4.5          	4.327410e-02	1.347680e-05	1.117300e-03	2.792360e-03	1.417090e-03
4.6          	4.305200e-02	1.273090e-05	1.024480e-03	2.615890e-03	1.311030e-03
4.7          	4.286020e-02	1.192060e-05	9.287440e-04	2.332290e-03	1.177070e-03
4.8          	4.263280e-02	1.122540e-05	8.553010e-04	2.227440e-03	1.084000e-03
4.9          	4.239630e-02	1.063400e-05	7.874860e-04	2.239640e-03	9.777740e-04
5            	4.222990e-02	9.877060e-06	7.171750e-04	2.057340e-03	8.773270e-04
5.1          	4.203240e-02	9.247170e-06	6.545820e-04	1.923620e-03	8.067900e-04
5.2          	4.188520e-02	8.588650e-06	5.914290e-04	1.756360e-03	7.356110e-04
5.3          	4.175170e-02	7.822120e-06	5.214950e-04	1.498970e-03	6.720320e-04
5.4          	4.159630e-02	7.260530e-06	4.713340e-04	1.389950e-03	6.107970e-04
5.5          	4.146320e-02	6.877990e-06	4.593190e-04	1.508610e-03	5.565980e-04
5.6          	4.135470e-02	6.172640e-06	3.927600e-04	1.187530e-03	5.153670e-04
5.7          	4.122320e-02	5.737410e-06	3.569050e-04	1.097340e-03	4.768790e-04
5.8          	4.112490e-02	5.428780e-06	3.285960e-04	1.090190e-03	4.425480e-04
5.9          	4.107400e-02	5.032250e-06	2.994220e-04	1.005910e-03	4.119260e-04
6            	4.104630e-02	4.775110e-06	3.081410e-04	1.129110e-03	3.906760e-04
6.1          	4.100960e-02	4.265870e-06	2.759040e-04	9.730030e-04	3.685180e-04
6.2          	4.094390e-02	3.952870e-06	2.537700e-04	8.532920e-04	3.506870e-04
6.3          	4.111620e-02	4.128710e-06	2.772560e-04	1.211620e-03	3.390430e-04
6.4          	4.109560e-02	3.909520e-06	2.601500e-04	1.168630e-03	3.295200e-04
6.5          	4.106260e-02	3.674030e-06	2.416190e-04	1.105910e-03	3.169490e-04
6.6          	4.105130e-02	3.499620e-06	2.339190e-04	1.047070e-03	3.083570e-04
6.7          	4.101920e-02	3.295920e-06	2.193590e-04	9.943410e-04	3.013550e-04
6.8          	4.099160e-02	3.110260e-06	2.086400e-04	9.447920e-04	2.955450e-04
6.9          	4.088470e-02	2.925500e-06	1.885800e-04	7.684060e-04	2.908470e-04
7            	4.085430e-02	2.771200e-06	1.796310e-04	7.246430e-04	2.893270e-04
7.1          	4.081320e-02	2.544150e-06	1.718740e-04	6.476590e-04	2.823520e-04
7.2          	4.082940e-02	2.454250e-06	1.682100e-04	6.654630e-04	2.815500e-04
7.3          	4.083280e-02	2.468270e-06	1.678320e-04	6.701420e-04	2.780660e-04
7.4          	4.082200e-02	2.399710e-06	1.656430e-04	6.612470e-04	2.780370e-04
7.5          	4.081270e-02	2.340450e-06	1.627860e-04	6.456650e-04	2.768990e-04
7.6          	4.080110e-02	2.295160e-06	1.622010e-04	6.317740e-04	2.758710e-04
7.7          	4.078510e-02	2.244930e-06	1.598820e-04	6.167840e-04	2.739570e-04
7.8          	4.077920e-02	2.210440e-06	1.596000e-04	6.216900e-04	2.757000e-04
7.9          	4.077270e-02	2.177530e-06	1.581640e-04	6.089740e-04	2.711320e-04
8            	4.077600e-02	2.153370e-06	1.586240e-04	6.164100e-04	2.741880e-04
8.1          	4.075360e-02	2.126710e-06	1.576440e-04	6.041920e-04	2.721290e-04
8.2          	4.075790e-02	2.108350e-06	1.578680e-04	6.103270e-04	2.715340e-04
8.3          	4.074470e-02	2.092700e-06	1.569810e-04	6.001180e-04	2.711620e-04
8.4          	4.075260e-02	2.081580e-06	1.576090e-04	6.078660e-04	2.705690e-04
8.5          	4.074830e-02	2.064750e-06	1.565290e-04	5.977080e-04	2.722820e-04
8.6          	4.073690e-02	2.056410e-06	1.570990e-04	6.068300e-04	2.735130e-04
8.7          	4.073280e-02	2.029820e-06	1.559450e-04	5.937190e-04	2.716470e-04
8.8          	4.072400e-02	2.022640e-06	1.564770e-04	6.040580e-04	2.723390e-04
8.9          	4.071620e-02	2.007840e-06	1.554760e-04	5.933190e-04	2.713610e-04
9            	4.072480e-02	2.002370e-06	1.563460e-04	6.063090e-04	2.729190e-04
9.1          	4.071150e-02	1.987640e-06	1.554640e-04	5.939340e-04	2.728520e-04
9.2          	4.071460e-02	1.977460e-06	1.556590e-04	6.040440e-04	2.697410e-04
9.3          	4.070060e-02	1.968790e-06	1.551420e-04	5.952070e-04	2.727230e-04
9.4          	4.071100e-02	1.961360e-06	1.556320e-04	6.054980e-04	2.730030e-04
9.5          	4.081380e-02	2.314640e-06	1.620950e-04	6.307940e-04	2.707150e-04
9.6          	4.070050e-02	1.934180e-06	1.549750e-04	6.009430e-04	2.715650e-04
9.7          	4.081280e-02	2.296500e-06	1.616750e-04	6.318260e-04	2.712040e-04
9.8          	4.068370e-02	1.919540e-06	1.547640e-04	6.016510e-04	2.735850e-04
9.9          	4.073710e-02	2.115490e-06	1.571750e-04	5.792190e-04	2.698130e-04
10           	4.074490e-02	2.111130e-06	1.569850e-04	5.821610e-04	2.708720e-04
10.1         	4.073400e-02	2.103330e-06	1.563260e-04	5.780540e-04	2.693360e-04
10.2         	4.074360e-02	2.100640e-06	1.572910e-04	5.861730e-04	2.738670e-04
10.3         	4.073950e-02	2.087560e-06	1.565120e-04	5.798550e-04	2.698690e-04
10.4         	4.073280e-02	2.077910e-06	1.566810e-04	5.843830e-04	2.727440e-04
10.5         	4.071650e-02	2.070930e-06	1.563690e-04	5.808960e-04	2.717030e-04
10.6         	4.073150e-02	2.061580e-06	1.566580e-04	5.858720e-04	2.706820e-04
10.7         	4.072710e-02	2.052210e-06	1.563290e-04	5.805920e-04	2.693950e-04
10.8         	4.072610e-02	2.041790e-06	1.566370e-04	5.840390e-04	2.723660e-04
10.9         	4.072860e-02	2.036890e-06	1.559790e-04	5.791140e-04	2.704810e-04
11           	4.072110e-02	2.025540e-06	1.565320e-04	5.844140e-04	2.745650e-04
11.1         	4.071240e-02	2.015440e-06	1.556960e-04	5.767920e-04	2.696440e-04
11.2         	4.071680e-02	2.014070e-06	1.563670e-04	5.857150e-04	2.717210e-04
11.3         	4.070330e-02	1.996490e-06	1.556060e-04	5.753190e-04	2.705120e-04
11.4         	4.071230e-02	1.988810e-06	1.561020e-04	5.812810e-04	2.718030e-04
11.5         	4.070870e-02	1.988670e-06	1.557470e-04	5.778100e-04	2.694110e-04
11.6         	4.070870e-02	1.985080e-06	1.562490e-04	5.858050e-04	2.713430e-04
11.7         	4.070410e-02	1.970210e-06	1.553350e-04	5.754080e-04	2.706680e-04
11.8         	4.071100e-02	1.965970e-06	1.560580e-04	5.834880e-04	2.716010e-04
11.9         	4.070060e-02	1.956950e-06	1.553820e-04	5.755430e-04	2.693340e-04
12           	4.070310e-02	1.949770e-06	1.555730e-04	5.789310e-04	2.707130e-04
12.1         	4.069690e-02	1.950310e-06	1.554030e-04	5.792260e-04	2.725780e-04
12.2         	4.069590e-02	1.941430e-06	1.557890e-04	5.811350e-04	2.733800e-04
12.3         	4.068810e-02	1.928490e-06	1.553110e-04	5.754210e-04	2.692770e-04
12.4         	4.069680e-02	1.928080e-06	1.558160e-04	5.815870e-04	2.709670e-04
12.5         	4.068870e-02	1.922670e-06	1.554410e-04	5.759780e-04	2.719540e-04
12.6         	4.069800e-02	1.910860e-06	1.556610e-04	5.779560e-04	2.715640e-04
12.7         	4.069000e-02	1.909300e-06	1.551680e-04	5.761790e-04	2.721510e-04
12.8         	4.068660e-02	1.905370e-06	1.556000e-04	5.825210e-04	2.709760e-04
12.9         	4.068470e-02	1.893600e-06	1.550670e-04	5.756140e-04	2.704990e-04
13           	4.069990e-02	1.892660e-06	1.559000e-04	5.806890e-04	2.719660e-04
13.1         	4.068770e-02	1.885090e-06	1.551050e-04	5.746210e-04	2.694170e-04
13.2         	4.069350e-02	1.881730e-06	1.558420e-04	5.832510e-04	2.718510e-04
13.3         	4.069240e-02	1.877350e-06	1.551450e-04	5.759660e-04	2.707980e-04
13.4         	4.069620e-02	1.865250e-06	1.555730e-04	5.787730e-04	2.728620e-04
13.5         	4.067890e-02	1.856850e-06	1.551550e-04	5.762320e-04	2.709100e-04
13.6         	4.068680e-02	1.853670e-06	1.555490e-04	5.781610e-04	2.735670e-04
13.7         	4.067040e-02	1.845890e-06	1.550930e-04	5.756250e-04	2.716040e-04
13.8         	4.068720e-02	1.839290e-06	1.555340e-04	5.812930e-04	2.720960e-04
13.9         	4.068130e-02	1.834230e-06	1.550370e-04	5.763600e-04	2.694920e-04
14           	4.068890e-02	1.826920e-06	1.553130e-04	5.812010e-04	2.704610e-04
14.1         	4.067310e-02	1.827610e-06	1.554640e-04	5.852650e-04	2.710910e-04
14.2         	4.068540e-02	1.808520e-06	1.552920e-04	5.798030e-04	2.708370e-04
14.3         	4.067890e-02	1.809490e-06	1.551680e-04	5.766310e-04	2.705450e-04
14.4         	4.068200e-02	1.798780e-06	1.555200e-04	5.808170e-04	2.708420e-04
14.5         	4.067800e-02	1.798040e-06	1.552150e-04	5.772540e-04	2.711040e-04
14.6         	4.067870e-02	1.782500e-06	1.552910e-04	5.770500e-04	2.703250e-04
14.7         	4.067010e-02	1.788570e-06	1.553120e-04	5.790090e-04	2.719390e-04
14.8         	4.068700e-02	1.786910e-06	1.556540e-04	5.834970e-04	2.730510e-04
14.9         	4.067200e-02	1.774940e-06	1.552870e-04	5.781390e-04	2.708870e-04
15           	4.067630e-02	1.770370e-06	1.556120e-04	5.820030e-04	2.703630e-04
15.1         	4.067390e-02	1.766970e-06	1.552750e-04	5.789860e-04	2.708690e-04
15.2         	4.067570e-02	1.757890e-06	1.553130e-04	5.788580e-04	2.710420e-04
15.3         	4.066500e-02	1.756990e-06	1.552300e-04	5.774110e-04	2.718310e-04
15.4         	4.068060e-02	1.745260e-06	1.552840e-04	5.768900e-04	2.713340e-04
15.5         	4.066600e-02	1.746410e-06	1.549920e-04	5.758520e-04	2.714470e-04
15.6         	4.067490e-02	1.746110e-06	1.555230e-04	5.815560e-04	2.725190e-04
15.7         	4.066950e-02	1.736530e-06	1.550210e-04	5.754100e-04	2.703960e-04
15.8         	4.067030e-02	1.737490e-06	1.555100e-04	5.821770e-04	2.727320e-04
15.9         	4.066830e-02	1.729080e-06	1.550820e-04	5.755000e-04	2.697820e-04
16           	4.067860e-02	1.725550e-06	1.555080e-04	5.801540e-04	2.721810e-04
16.1         	4.066710e-02	1.729640e-06	1.553770e-04	5.798350e-04	2.710480e-04
16.2         	4.067420e-02	1.720760e-06	1.554800e-04	5.812740e-04	2.721970e-04
16.3         	4.067340e-02	1.716940e-06	1.552220e-04	5.769900e-04	2.709870e-04
16.4         	4.067530e-02	1.710700e-06	1.553950e-04	5.789780e-04	2.706880e-04
16.5         	4.066920e-02	1.709590e-06	1.550910e-04	5.731180e-04	2.708880e-04
16.6         	4.067300e-02	1.704780e-06	1.555720e-04	5.796520e-04	2.700250e-04
16.7         	4.065920e-02	1.704630e-06	1.553380e-04	5.767670e-04	2.715470e-04
16.8         	4.067070e-02	1.700120e-06	1.554730e-04	5.801320e-04	2.699230e-04
16.9         	4.066680e-02	1.700980e-06	1.552730e-04	5.775780e-04	2.699920e-04
17           	4.066390e-02	1.695030e-06	1.555340e-04	5.804380e-04	2.724040e-04
17.1         	4.066060e-02	1.692560e-06	1.551470e-04	5.754110e-04	2.697200e-04
17.2         	4.067080e-02	1.689980e-06	1.554480e-04	5.786100e-04	2.701070e-04
17.3         	4.066120e-02	1.687610e-06	1.551870e-04	5.764820e-04	2.694750e-04
17.4         	4.067370e-02	1.686440e-06	1.557270e-04	5.818950e-04	2.728330e-04
17.5         	4.066740e-02	1.690410e-06	1.553350e-04	5.800220e-04	2.731100e-04
17.6         	4.066970e-02	1.677610e-06	1.554800e-04	5.773290e-04	2.707430e-04
17.7         	4.066410e-02	1.683510e-06	1.552740e-04	5.784060e-04	2.718290e-04
17.8         	4.066870e-02	1.676400e-06	1.555840e-04	5.792250e-04	2.705860e-04
17.9         	4.066020e-02	1.678930e-06	1.552300e-04	5.782250e-04	2.713340e-04
18           	4.067710e-02	1.670850e-06	1.554650e-04	5.777830e-04	2.713420e-04
18.1         	4.066840e-02	1.673620e-06	1.553680e-04	5.770890e-04	2.727880e-04
18.2         	4.067510e-02	1.663240e-06	1.553850e-04	5.754480e-04	2.716790e-04
18.3         	4.065740e-02	1.664680e-06	1.550390e-04	5.746710e-04	2.700090e-04
18.4         	4.067590e-02	1.668050e-06	1.558090e-04	5.821450e-04	2.705050e-04
18.5         	4.065720e-02	1.667470e-06	1.552180e-04	5.775570e-04	2.711790e-04
18.6         	4.066670e-02	1.661160e-06	1.556510e-04	5.812310e-04	2.709960e-04
18.7         	4.065850e-02	1.663460e-06	1.552400e-04	5.771690e-04	2.714290e-04
18.8         	4.066480e-02	1.659250e-06	1.557260e-04	5.799310e-04	2.711690e-04
18.9         	4.066610e-02	1.658270e-06	1.554560e-04	5.767880e-04	2.695950e-04
19           	4.067430e-02	1.655820e-06	1.558440e-04	5.800220e-04	2.729860e-04
19.1         	4.066850e-02	1.660640e-06	1.556010e-04	5.778100e-04	2.710850e-04
19.2         	4.067260e-02	1.648600e-06	1.555260e-04	5.779290e-04	2.711760e-04
19.3         	4.067060e-02	1.651700e-06	1.552570e-04	5.753490e-04	2.704520e-04
19.4         	4.066760e-02	1.647000e-06	1.555990e-04	5.791930e-04	2.718280e-04
19.5         	4.066270e-02	1.645910e-06	1.551680e-04	5.749240e-04	2.700830e-04
19.6         	4.066980e-02	1.642900e-06	1.556960e-04	5.789700e-04	2.692510e-04
19.7         	4.066220e-02	1.644070e-06	1.551250e-04	5.746290e-04	2.695760e-04
19.8         	4.067330e-02	1.647050e-06	1.560580e-04	5.847270e-04	2.729610e-04
19.9         	4.067470e-02	1.638700e-06	1.549540e-04	5.716670e-04	2.691040e-04
20           	4.067080e-02	1.638990e-06	1.556150e-04	5.793370e-04	2.717640e-04
20.1         	4.065580e-02	1.639060e-06	1.552550e-04	5.774640e-04	2.704160e-04
20.2         	4.066990e-02	1.633830e-06	1.555020e-04	5.785040e-04	2.704860e-04
20.3         	4.065920e-02	1.629870e-06	1.550990e-04	5.721150e-04	2.703600e-04
20.4         	4.066720e-02	1.632330e-06	1.556730e-04	5.784860e-04	2.707050e-04
20.5         	4.066440e-02	1.631340e-06	1.551800e-04	5.752740e-04	2.701740e-04
20.6         	4.067200e-02	1.631570e-06	1.556800e-04	5.801930e-04	2.709260e-04
20.7         	4.066140e-02	1.633590e-06	1.553350e-04	5.765400e-04	2.695090e-04
20.8         	4.067430e-02	1.634980e-06	1.558300e-04	5.829140e-04	2.715200e-04
20.9         	4.061300e-02	1.443500e-06	1.584870e-04	5.726410e-04	2.692870e-04
21           	4.068860e-02	1.627240e-06	1.573830e-04	5.829590e-04	2.723110e-04
21.1         	4.066800e-02	1.625470e-06	1.550950e-04	5.748200e-04	2.699610e-04
21.2         	4.067570e-02	1.624950e-06	1.558140e-04	5.802720e-04	2.717070e-04
21.3         	4.066160e-02	1.625950e-06	1.554470e-04	5.741340e-04	2.691700e-04
21.4         	4.067120e-02	1.620300e-06	1.556660e-04	5.803170e-04	2.728700e-04
21.5         	4.065460e-02	1.627270e-06	1.553110e-04	5.810140e-04	2.730150e-04
21.6         	4.062280e-02	1.434680e-06	1.588260e-04	5.764240e-04	2.712620e-04
21.7         	4.068410e-02	1.617200e-06	1.567680e-04	5.758320e-04	2.686180e-04
21.8         	4.066660e-02	1.617060e-06	1.554920e-04	5.819770e-04	2.724660e-04
21.9         	4.066670e-02	1.613530e-06	1.551280e-04	5.744130e-04	2.697010e-04
22           	4.068480e-02	1.617620e-06	1.557340e-04	5.810300e-04	2.720560e-04
22.1         	4.060750e-02	1.428650e-06	1.584910e-04	5.737080e-04	2.681960e-04
22.2         	4.069290e-02	1.617640e-06	1.573270e-04	5.832710e-04	2.747280e-04
22.3         	4.066450e-02	1.610030e-06	1.550410e-04	5.757110e-04	2.699640e-04
22.4         	4.067260e-02	1.608710e-06	1.557950e-04	5.814140e-04	2.718140e-04
22.5         	4.061550e-02	1.423580e-06	1.586900e-04	5.746770e-04	2.695420e-04
22.6         	4.068960e-02	1.605140e-06	1.571110e-04	5.798540e-04	2.705640e-04
22.7         	4.066010e-02	1.609510e-06	1.552940e-04	5.797650e-04	2.703950e-04
22.8         	4.066550e-02	1.606700e-06	1.555970e-04	5.820930e-04	2.702900e-04
22.9         	4.066780e-02	1.608370e-06	1.553720e-04	5.800180e-04	2.708480e-04
23           	4.062070e-02	1.418370e-06	1.590240e-04	5.773210e-04	2.710450e-04
23.1         	4.068690e-02	1.604130e-06	1.569250e-04	5.768560e-04	2.717750e-04
23.2         	4.066800e-02	1.604960e-06	1.558590e-04	5.837770e-04	2.721060e-04
23.3         	4.066240e-02	1.604080e-06	1.553340e-04	5.788050e-04	2.708110e-04
23.4         	4.061780e-02	1.414270e-06	1.590590e-04	5.782070e-04	2.718400e-04
23.5         	4.068320e-02	1.599810e-06	1.567840e-04	5.762260e-04	2.713820e-04
23.6         	4.066690e-02	1.595770e-06	1.556920e-04	5.800290e-04	2.709950e-04
23.7         	4.066080e-02	1.598660e-06	1.553710e-04	5.773420e-04	2.690110e-04
23.8         	4.067090e-02	1.597200e-06	1.557390e-04	5.814180e-04	2.723020e-04
23.9         	4.061050e-02	1.413970e-06	1.590720e-04	5.777070e-04	2.725880e-04
24           	4.068900e-02	1.592720e-06	1.572490e-04	5.801180e-04	2.719840e-04
24.1         	4.066170e-02	1.592550e-06	1.550760e-04	5.751740e-04	2.724010e-04
24.2         	4.067140e-02	1.592110e-06	1.558940e-04	5.810870e-04	2.721030e-04
24.3         	4.066780e-02	1.591380e-06	1.550260e-04	5.730640e-04	2.698400e-04
24.4         	4.067340e-02	1.594660e-06	1.557970e-04	5.831340e-04	2.708330e-04
24.5         	4.061100e-02	1.407030e-06	1.586970e-04	5.744960e-04	2.698190e-04
24.6         	4.069890e-02	1.589330e-06	1.572930e-04	5.803870e-04	2.708830e-04
24.7         	4.066720e-02	1.593090e-06	1.552940e-04	5.790440e-04	2.721820e-04
24.8         	4.067560e-02	1.587100e-06	1.557580e-04	5.814240e-04	2.703530e-04
24.9         	4.066390e-02	1.588620e-06	1.554590e-04	5.784480e-04	2.717560e-04
25           	4.067070e-02	1.587680e-06	1.557330e-04	5.822770e-04	2.719270e-04
25.1         	4.061310e-02	1.402430e-06	1.586430e-04	5.741280e-04	2.694960e-04
25.2         	4.069000e-02	1.585490e-06	1.572680e-04	5.804860e-04	2.713270e-04
25.3         	4.067130e-02	1.586070e-06	1.554130e-04	5.772210e-04	2.698300e-04
25.4         	4.066890e-02	1.582760e-06	1.557840e-04	5.813650e-04	2.711790e-04
25.5         	4.066620e-02	1.588570e-06	1.555820e-04	5.778790e-04	2.691640e-04
25.6         	4.066710e-02	1.587240e-06	1.556170e-04	5.824970e-04	2.725140e-04
25.7         	4.066290e-02	1.587880e-06	1.554270e-04	5.814170e-04	2.702940e-04
25.8         	4.062890e-02	1.399250e-06	1.592010e-04	5.784150e-04	2.704860e-04
25.9         	4.069140e-02	1.582660e-06	1.568220e-04	5.751740e-04	2.694900e-04
26           	4.067270e-02	1.580150e-06	1.555790e-04	5.809060e-04	2.707450e-04
26.1         	4.066090e-02	1.574690e-06	1.551740e-04	5.746390e-04	2.695200e-04
26.2         	4.067290e-02	1.579580e-06	1.557140e-04	5.806810e-04	2.696330e-04
26.3         	4.066750e-02	1.583680e-06	1.554010e-04	5.775160e-04	2.716160e-04
26.4         	4.067030e-02	1.580930e-06	1.556040e-04	5.804930e-04	2.737240e-04
26.5         	4.066770e-02	1.583930e-06	1.555640e-04	5.785800e-04	2.697660e-04
26.6         	4.066860e-02	1.579310e-06	1.557120e-04	5.818110e-04	2.715790e-04
26.7         	4.066120e-02	1.584980e-06	1.554750e-04	5.809760e-04	2.710410e-04
26.8         	4.062890e-02	1.394040e-06	1.589630e-04	5.774490e-04	2.703110e-04
26.9         	4.068530e-02	1.578240e-06	1.568440e-04	5.753600e-04	2.701970e-04
27           	4.067010e-02	1.578240e-06	1.557570e-04	5.823120e-04	2.726630e-04
27.1         	4.066680e-02	1.574340e-06	1.553120e-04	5.751380e-04	2.686400e-04
27.2         	4.066710e-02	1.574900e-06	1.558730e-04	5.803410e-04	2.706500e-04
27.3         	4.066350e-02	1.579320e-06	1.553080e-04	5.784590e-04	2.704170e-04
27.4         	4.067970e-02	1.571010e-06	1.556710e-04	5.798490e-04	2.709720e-04
27.5         	4.066180e-02	1.577530e-06	1.553340e-04	5.772750e-04	2.708410e-04
27.6         	4.067040e-02	1.572730e-06	1.555580e-04	5.805770e-04	2.712480e-04
27.7         	4.062430e-02	1.388380e-06	1.586200e-04	5.730140e-04	2.704050e-04
27.8         	4.069420e-02	1.573550e-06	1.574080e-04	5.812540e-04	2.716220e-04
27.9         	4.065780e-02	1.581070e-06	1.554200e-04	5.805020e-04	2.702560e-04
28           	4.067370e-02	1.573370e-06	1.557950e-04	5.816140e-04	2.694820e-04
28.1         	4.066900e-02	1.573370e-06	1.553170e-04	5.769920e-04	2.696450e-04
28.2         	4.067510e-02	1.570860e-06	1.557120e-04	5.801760e-04	2.721840e-04
28.3         	4.066920e-02	1.574860e-06	1.552510e-04	5.751570e-04	2.709960e-04
28.4         	4.066960e-02	1.570480e-06	1.556030e-04	5.798710e-04	2.719140e-04
28.5         	4.066200e-02	1.572820e-06	1.552500e-04	5.753530e-04	2.707320e-04
28.6         	4.067250e-02	1.572180e-06	1.555410e-04	5.798220e-04	2.711020e-04
28.7         	4.066430e-02	1.573710e-06	1.552560e-04	5.759650e-04	2.707560e-04
28.8         	4.067060e-02	1.570830e-06	1.556710e-04	5.795230e-04	2.718820e-04
28.9         	4.066960e-02	1.572560e-06	1.552890e-04	5.761150e-04	2.693360e-04
29           	4.066840e-02	1.569590e-06	1.556070e-04	5.791070e-04	2.723530e-04
29.1         	4.066710e-02	1.568380e-06	1.553040e-04	5.732940e-04	2.682510e-04
29.2         	4.067250e-02	1.568910e-06	1.557880e-04	5.797960e-04	2.711750e-04
29.3         	4.067300e-02	1.572260e-06	1.554050e-04	5.745800e-04	2.717390e-04
29.4         	4.067760e-02	1.569140e-06	1.556980e-04	5.808950e-04	2.729990e-04
29.5         	4.067040e-02	1.576600e-06	1.553930e-04	5.774110e-04	2.705550e-04
29.6         	4.067330e-02	1.570150e-06	1.557100e-04	5.813000e-04	2.692590e-04
29.7         	4.066170e-02	1.569440e-06	1.553270e-04	5.780770e-04	2.705520e-04
29.8         	4.067190e-02	1.566070e-06	1.556090e-04	5.805860e-04	2.715340e-04
29.9         	4.066290e-02	1.571480e-06	1.551850e-04	5.770290e-04	2.704560e-04
30           	4.067630e-02	1.570250e-06	1.555810e-04	5.813550e-04	2.699850e-04
30.1         	4.066530e-02	1.572210e-06	1.551650e-04	5.762680e-04	2.716900e-04
30.2         	4.067240e-02	1.568980e-06	1.559810e-04	5.820630e-04	2.701940e-04
30.3         	4.066480e-02	1.568770e-06	1.553820e-04	5.774270e-04	2.695610e-04
30.4         	4.067040e-02	1.570380e-06	1.556540e-04	5.815940e-04	2.691680e-04
30.5         	4.066280e-02	1.566790e-06	1.553210e-04	5.753240e-04	2.691460e-04
30.6         	4.067230e-02	1.564980e-06	1.557070e-04	5.788220e-04	2.702570e-04
30.7         	4.067270e-02	1.566320e-06	1.552080e-04	5.753760e-04	2.697000e-04
30.8         	4.066990e-02	1.569120e-06	1.558810e-04	5.829180e-04	2.722380e-04
30.9         	4.066250e-02	1.576400e-06	1.554350e-04	5.801810e-04	2.725120e-04
31           	4.067870e-02	1.563350e-06	1.555920e-04	5.780950e-04	2.707690e-04
31.1         	4.067180e-02	1.571000e-06	1.555490e-04	5.774450e-04	2.713730e-04
31.2         	4.067700e-02	1.566090e-06	1.555940e-04	5.782280e-04	2.716560e-04
31.3         	4.067450e-02	1.567720e-06	1.554520e-04	5.769640e-04	2.710760e-04
31.4         	4.067760e-02	1.568250e-06	1.556570e-04	5.802460e-04	2.738850e-04
31.5         	4.066890e-02	1.567510e-06	1.552030e-04	5.750910e-04	2.715830e-04
31.6         	4.068230e-02	1.561070e-06	1.555240e-04	5.754550e-04	2.723750e-04
31.7         	4.066810e-02	1.567200e-06	1.552010e-04	5.770500e-04	2.718670e-04
31.8         	4.067290e-02	1.562520e-06	1.556660e-04	5.775930e-04	2.716260e-04
31.9         	4.067090e-02	1.566310e-06	1.552920e-04	5.755010e-04	2.707360e-04
32           	4.067730e-02	1.567120e-06	1.557960e-04	5.807950e-04	2.709190e-04
32.1         	4.066550e-02	1.566120e-06	1.553440e-04	5.760330e-04	2.722630e-04
32.2         	4.067460e-02	1.565060e-06	1.555940e-04	5.797780e-04	2.716320e-04
32.3         	4.066850e-02	1.563640e-06	1.551180e-04	5.732270e-04	2.697710e-04
32.4         	4.066760e-02	1.563870e-06	1.556810e-04	5.803980e-04	2.700930e-04
32.5         	4.066710e-02	1.573180e-06	1.553240e-04	5.798470e-04	2.712580e-04
32.6         	4.067740e-02	1.565380e-06	1.556990e-04	5.814350e-04	2.708220e-04
32.7         	4.066280e-02	1.559940e-06	1.548960e-04	5.737950e-04	2.700260e-04
32.8         	4.068110e-02	1.567050e-06	1.558880e-04	5.835450e-04	2.706540e-04
32.9         	4.066710e-02	1.568750e-06	1.552220e-04	5.790770e-04	2.692400e-04
33           	4.067970e-02	1.566340e-06	1.559160e-04	5.828370e-04	2.741610e-04
33.1         	4.067430e-02	1.566120e-06	1.551310e-04	5.761570e-04	2.711000e-04
33.2         	4.067510e-02	1.566260e-06	1.556670e-04	5.831210e-04	2.721560e-04
33.3         	4.065820e-02	1.564350e-06	1.551430e-04	5.766460e-04	2.688190e-04
33.4         	4.067320e-02	1.561330e-06	1.556520e-04	5.810100e-04	2.696210e-04
33.5         	4.066660e-02	1.565790e-06	1.553570e-04	5.763100e-04	2.704940e-04
33.6         	4.067390e-02	1.567160e-06	1.558430e-04	5.831800e-04	2.721070e-04
33.7         	4.066740e-02	1.569490e-06	1.553880e-04	5.796820e-04	2.722040e-04
33.8         	4.067280e-02	1.563180e-06	1.556790e-04	5.811840e-04	2.703570e-04
33.9         	4.066120e-02	1.567620e-06	1.552690e-04	5.788930e-04	2.698000e-04
34           	4.067360e-02	1.569700e-06	1.560780e-04	5.881920e-04	2.731740e-04
34.1         	4.067160e-02	1.560990e-06	1.552300e-04	5.745470e-04	2.695320e-04
34.2         	4.067650e-02	1.560850e-06	1.558360e-04	5.792960e-04	2.725940e-04
34.3         	4.067140e-02	1.566450e-06	1.552240e-04	5.762350e-04	2.701690e-04
34.4         	4.067490e-02	1.560120e-06	1.556740e-04	5.812430e-04	2.714770e-04
34.5         	4.067490e-02	1.565690e-06	1.553960e-04	5.792180e-04	2.717270e-04
34.6         	4.067480e-02	1.565340e-06	1.559450e-04	5.839910e-04	2.733810e-04
34.7         	4.066170e-02	1.561780e-06	1.551360e-04	5.765060e-04	2.716340e-04
34.8         	4.067440e-02	1.563840e-06	1.558580e-04	5.824970e-04	2.707350e-04
34.9         	4.067120e-02	1.561740e-06	1.552600e-04	5.764840e-04	2.708010e-04
35           	4.067250e-02	1.560930e-06	1.557150e-04	5.799560e-04	2.719960e-04
35.1         	4.066790e-02	1.564350e-06	1.553650e-04	5.786080e-04	2.711240e-04
35.2         	4.066770e-02	1.564090e-06	1.558280e-04	5.852670e-04	2.714590e-04
35.3         	4.067000e-02	1.562140e-06	1.550810e-04	5.759190e-04	2.695520e-04
35.4         	4.067320e-02	1.556760e-06	1.557190e-04	5.783190e-04	2.715190e-04
35.5         	4.067120e-02	1.557610e-06	1.552450e-04	5.742020e-04	2.702380e-04
35.6         	4.067250e-02	1.565770e-06	1.558730e-04	5.842120e-04	2.728070e-04
35.7         	4.066260e-02	1.555320e-06	1.551110e-04	5.732840e-04	2.682040e-04
35.8         	4.067720e-02	1.562370e-06	1.557800e-04	5.823030e-04	2.704630e-04
35.9         	4.066840e-02	1.558040e-06	1.551400e-04	5.740510e-04	2.682840e-04
36           	4.067710e-02	1.564690e-06	1.558530e-04	5.829500e-04	2.712340e-04
36.1         	4.066650e-02	1.563700e-06	1.553600e-04	5.782220e-04	2.692490e-04
36.2         	4.067480e-02	1.559640e-06	1.556150e-04	5.803330e-04	2.701590e-04
36.3         	4.066970e-02	1.560600e-06	1.552640e-04	5.783220e-04	2.705310e-04
36.4         	4.068280e-02	1.557430e-06	1.556050e-04	5.791880e-04	2.716180e-04
36.5         	4.066750e-02	1.564090e-06	1.553570e-04	5.765830e-04	2.717660e-04
36.6         	4.067460e-02	1.561700e-06	1.560060e-04	5.847630e-04	2.711800e-04
36.7         	4.067300e-02	1.561270e-06	1.552690e-04	5.758120e-04	2.696120e-04
36.8         	4.067380e-02	1.556580e-06	1.556430e-04	5.785820e-04	2.728260e-04
36.9         	4.066630e-02	1.564360e-06	1.554240e-04	5.815610e-04	2.707180e-04
37           	4.067710e-02	1.561060e-06	1.555480e-04	5.821250e-04	2.714710e-04
37.1         	4.066510e-02	1.560530e-06	1.550960e-04	5.771780e-04	2.707500e-04
37.2         	4.067670e-02	1.558290e-06	1.558100e-04	5.800260e-04	2.713920e-04
37.3         	4.067460e-02	1.558880e-06	1.553160e-04	5.756030e-04	2.712040e-04
37.4         	4.067550e-02	1.557830e-06	1.554640e-04	5.777840e-04	2.722000e-04
37.5         	4.067000e-02	1.555270e-06	1.553050e-04	5.737610e-04	2.693620e-04
37.6         	4.067910e-02	1.555550e-06	1.557590e-04	5.806270e-04	2.712510e-04
37.7         	4.067140e-02	1.560890e-06	1.553670e-04	5.762780e-04	2.703040e-04
37.8         	4.067500e-02	1.559640e-06	1.555730e-04	5.819160e-04	2.715110e-04