/*--------------------------------*- C++ -*----------------------------------*\
| =========                 |                                                 |
| \\      /  F ield         | OpenFOAM: The Open Source CFD Toolbox           |
|  \\    /   O peration     | Version:  5.x                                   |
|   \\  /    A nd           | Web:      www.OpenFOAM.org                      |
|    \\/     M anipulation  |                                                 |
\*---------------------------------------------------------------------------*/
FoamFile
{
    version     2.0;
    format      ascii;
    class       volScalarField;
    location    "0";
    object      epsilon;
}
// * * * * * * * * * * * * * * * * * * * * * * * * * * * * * * * * * * * * * //

dimensions      [0 2 -3 0 0 0 0];

internalField   nonuniform List<scalar> 
124250
(
2.49884
2.49459
2.46927
2.4443
2.4253
2.41173
2.40185
2.39435
2.38841
2.38352
2.37941
2.3759
2.37286
2.37019
2.36784
2.36575
2.36389
2.36221
2.3607
2.35932
2.35807
2.35693
2.35588
2.35492
2.35404
2.35323
2.35247
2.35178
2.35113
2.35053
2.34997
2.34945
2.34897
2.34852
2.34809
2.3477
2.34733
2.34699
2.34666
2.34636
2.34608
2.34581
2.34556
2.34532
2.3451
2.34489
2.34469
2.3445
2.34432
2.34415
2.34399
2.34384
2.3437
2.34356
2.34343
2.3433
2.34318
2.34307
2.34296
2.34286
2.34276
2.34266
2.34257
2.34248
2.3424
2.34232
2.34224
2.34217
2.3421
2.34203
2.34196
2.3419
2.34184
2.34178
2.34172
2.34167
2.34162
2.34157
2.34152
2.34148
2.34143
2.34139
2.34135
2.34131
2.34128
2.34124
2.34121
2.34117
2.34114
2.34111
2.34109
2.34106
2.34103
2.34101
2.34099
2.34097
2.34094
2.34093
2.34091
2.34089
2.34087
2.34086
2.34084
2.34083
2.34082
2.49884
2.49459
2.46927
2.4443
2.4253
2.41173
2.40185
2.39435
2.3884
2.38352
2.37941
2.37589
2.37285
2.37019
2.36784
2.36575
2.36389
2.36221
2.36069
2.35932
2.35807
2.35693
2.35588
2.35492
2.35404
2.35323
2.35247
2.35178
2.35113
2.35053
2.34997
2.34945
2.34897
2.34852
2.3481
2.3477
2.34734
2.34699
2.34667
2.34636
2.34608
2.34581
2.34556
2.34532
2.3451
2.34489
2.34469
2.3445
2.34432
2.34416
2.344
2.34384
2.3437
2.34356
2.34343
2.34331
2.34319
2.34307
2.34296
2.34286
2.34276
2.34267
2.34257
2.34249
2.3424
2.34232
2.34224
2.34217
2.3421
2.34203
2.34196
2.3419
2.34184
2.34178
2.34173
2.34167
2.34162
2.34157
2.34152
2.34148
2.34143
2.34139
2.34135
2.34131
2.34128
2.34124
2.34121
2.34117
2.34114
2.34111
2.34109
2.34106
2.34103
2.34101
2.34099
2.34097
2.34094
2.34092
2.34091
2.34089
2.34087
2.34086
2.34084
2.34083
2.34082
2.49884
2.49459
2.46927
2.4443
2.4253
2.41173
2.40185
2.39435
2.3884
2.38352
2.37941
2.37589
2.37285
2.37019
2.36784
2.36575
2.36388
2.36221
2.36069
2.35932
2.35807
2.35693
2.35588
2.35492
2.35404
2.35323
2.35247
2.35178
2.35113
2.35053
2.34997
2.34945
2.34897
2.34852
2.3481
2.3477
2.34734
2.34699
2.34667
2.34636
2.34608
2.34581
2.34556
2.34532
2.3451
2.34489
2.34469
2.3445
2.34433
2.34416
2.344
2.34384
2.3437
2.34356
2.34343
2.34331
2.34319
2.34307
2.34297
2.34286
2.34276
2.34267
2.34258
2.34249
2.3424
2.34232
2.34225
2.34217
2.3421
2.34203
2.34196
2.3419
2.34184
2.34178
2.34173
2.34167
2.34162
2.34157
2.34152
2.34148
2.34143
2.34139
2.34135
2.34131
2.34128
2.34124
2.34121
2.34117
2.34114
2.34111
2.34109
2.34106
2.34103
2.34101
2.34099
2.34097
2.34094
2.34092
2.34091
2.34089
2.34087
2.34086
2.34084
2.34083
2.34082
2.49884
2.49459
2.46927
2.4443
2.4253
2.41172
2.40184
2.39435
2.3884
2.38352
2.37941
2.37589
2.37285
2.37019
2.36784
2.36575
2.36388
2.36221
2.36069
2.35932
2.35807
2.35693
2.35588
2.35492
2.35404
2.35323
2.35247
2.35178
2.35113
2.35053
2.34997
2.34945
2.34897
2.34852
2.3481
2.3477
2.34734
2.34699
2.34667
2.34636
2.34608
2.34581
2.34556
2.34532
2.3451
2.34489
2.34469
2.3445
2.34433
2.34416
2.344
2.34384
2.3437
2.34356
2.34343
2.34331
2.34319
2.34307
2.34297
2.34286
2.34276
2.34267
2.34258
2.34249
2.3424
2.34232
2.34225
2.34217
2.3421
2.34203
2.34196
2.3419
2.34184
2.34178
2.34173
2.34167
2.34162
2.34157
2.34152
2.34148
2.34143
2.34139
2.34135
2.34131
2.34128
2.34124
2.34121
2.34117
2.34114
2.34111
2.34109
2.34106
2.34103
2.34101
2.34099
2.34097
2.34094
2.34092
2.34091
2.34089
2.34087
2.34086
2.34084
2.34083
2.34082
2.49884
2.49459
2.46927
2.4443
2.4253
2.41172
2.40184
2.39435
2.3884
2.38352
2.37941
2.37589
2.37285
2.37019
2.36784
2.36575
2.36388
2.36221
2.36069
2.35932
2.35807
2.35693
2.35588
2.35492
2.35404
2.35323
2.35247
2.35178
2.35113
2.35053
2.34997
2.34945
2.34897
2.34852
2.3481
2.3477
2.34733
2.34699
2.34667
2.34636
2.34608
2.34581
2.34556
2.34532
2.3451
2.34489
2.34469
2.3445
2.34432
2.34416
2.344
2.34384
2.3437
2.34356
2.34343
2.34331
2.34319
2.34307
2.34297
2.34286
2.34276
2.34267
2.34257
2.34249
2.3424
2.34232
2.34224
2.34217
2.3421
2.34203
2.34196
2.3419
2.34184
2.34178
2.34173
2.34167
2.34162
2.34157
2.34152
2.34148
2.34143
2.34139
2.34135
2.34131
2.34128
2.34124
2.34121
2.34117
2.34114
2.34111
2.34109
2.34106
2.34103
2.34101
2.34099
2.34097
2.34094
2.34092
2.34091
2.34089
2.34087
2.34086
2.34084
2.34083
2.34082
2.49884
2.49459
2.46927
2.4443
2.4253
2.41172
2.40184
2.39435
2.3884
2.38352
2.37941
2.37589
2.37285
2.37019
2.36784
2.36575
2.36388
2.36221
2.36069
2.35932
2.35807
2.35693
2.35588
2.35492
2.35404
2.35323
2.35247
2.35178
2.35113
2.35053
2.34997
2.34945
2.34897
2.34852
2.3481
2.3477
2.34733
2.34699
2.34667
2.34636
2.34608
2.34581
2.34556
2.34532
2.3451
2.34489
2.34469
2.3445
2.34432
2.34416
2.344
2.34384
2.3437
2.34356
2.34343
2.34331
2.34319
2.34307
2.34296
2.34286
2.34276
2.34267
2.34257
2.34249
2.3424
2.34232
2.34224
2.34217
2.3421
2.34203
2.34196
2.3419
2.34184
2.34178
2.34173
2.34167
2.34162
2.34157
2.34152
2.34148
2.34143
2.34139
2.34135
2.34131
2.34128
2.34124
2.34121
2.34117
2.34114
2.34111
2.34109
2.34106
2.34103
2.34101
2.34099
2.34097
2.34094
2.34092
2.34091
2.34089
2.34087
2.34086
2.34084
2.34083
2.34082
2.49884
2.49459
2.46927
2.4443
2.4253
2.41172
2.40184
2.39435
2.3884
2.38352
2.37941
2.37589
2.37285
2.37019
2.36784
2.36575
2.36388
2.36221
2.36069
2.35932
2.35807
2.35693
2.35588
2.35492
2.35404
2.35322
2.35247
2.35178
2.35113
2.35053
2.34997
2.34945
2.34897
2.34852
2.3481
2.3477
2.34733
2.34699
2.34667
2.34636
2.34608
2.34581
2.34556
2.34532
2.3451
2.34489
2.34469
2.3445
2.34432
2.34415
2.34399
2.34384
2.3437
2.34356
2.34343
2.34331
2.34319
2.34307
2.34296
2.34286
2.34276
2.34266
2.34257
2.34249
2.3424
2.34232
2.34224
2.34217
2.3421
2.34203
2.34196
2.3419
2.34184
2.34178
2.34173
2.34167
2.34162
2.34157
2.34152
2.34148
2.34143
2.34139
2.34135
2.34131
2.34128
2.34124
2.34121
2.34117
2.34114
2.34111
2.34109
2.34106
2.34103
2.34101
2.34099
2.34096
2.34094
2.34092
2.34091
2.34089
2.34087
2.34086
2.34084
2.34083
2.34082
2.49884
2.49459
2.46927
2.4443
2.4253
2.41172
2.40184
2.39435
2.3884
2.38352
2.37941
2.37589
2.37285
2.37019
2.36784
2.36575
2.36388
2.36221
2.36069
2.35932
2.35807
2.35693
2.35588
2.35492
2.35404
2.35322
2.35247
2.35177
2.35113
2.35053
2.34997
2.34945
2.34897
2.34852
2.34809
2.3477
2.34733
2.34699
2.34666
2.34636
2.34608
2.34581
2.34556
2.34532
2.3451
2.34489
2.34469
2.3445
2.34432
2.34415
2.34399
2.34384
2.3437
2.34356
2.34343
2.3433
2.34319
2.34307
2.34296
2.34286
2.34276
2.34266
2.34257
2.34249
2.3424
2.34232
2.34224
2.34217
2.3421
2.34203
2.34196
2.3419
2.34184
2.34178
2.34172
2.34167
2.34162
2.34157
2.34152
2.34148
2.34143
2.34139
2.34135
2.34131
2.34128
2.34124
2.34121
2.34117
2.34114
2.34111
2.34109
2.34106
2.34103
2.34101
2.34099
2.34096
2.34094
2.34092
2.34091
2.34089
2.34087
2.34086
2.34084
2.34083
2.34082
2.49884
2.49459
2.46927
2.4443
2.4253
2.41172
2.40184
2.39434
2.3884
2.38352
2.3794
2.37589
2.37285
2.37019
2.36784
2.36575
2.36388
2.36221
2.36069
2.35932
2.35807
2.35692
2.35588
2.35492
2.35404
2.35322
2.35247
2.35177
2.35113
2.35053
2.34997
2.34945
2.34897
2.34851
2.34809
2.3477
2.34733
2.34699
2.34666
2.34636
2.34608
2.34581
2.34556
2.34532
2.3451
2.34489
2.34469
2.3445
2.34432
2.34415
2.34399
2.34384
2.3437
2.34356
2.34343
2.3433
2.34318
2.34307
2.34296
2.34286
2.34276
2.34266
2.34257
2.34248
2.3424
2.34232
2.34224
2.34217
2.3421
2.34203
2.34196
2.3419
2.34184
2.34178
2.34172
2.34167
2.34162
2.34157
2.34152
2.34148
2.34143
2.34139
2.34135
2.34131
2.34128
2.34124
2.34121
2.34117
2.34114
2.34111
2.34109
2.34106
2.34103
2.34101
2.34099
2.34096
2.34094
2.34092
2.34091
2.34089
2.34087
2.34086
2.34084
2.34083
2.34082
2.49884
2.49459
2.46927
2.4443
2.4253
2.41172
2.40184
2.39434
2.3884
2.38352
2.3794
2.37589
2.37285
2.37019
2.36784
2.36575
2.36388
2.3622
2.36069
2.35932
2.35807
2.35692
2.35588
2.35492
2.35404
2.35322
2.35247
2.35177
2.35113
2.35053
2.34997
2.34945
2.34896
2.34851
2.34809
2.3477
2.34733
2.34698
2.34666
2.34636
2.34607
2.34581
2.34556
2.34532
2.3451
2.34488
2.34469
2.3445
2.34432
2.34415
2.34399
2.34384
2.34369
2.34356
2.34343
2.3433
2.34318
2.34307
2.34296
2.34286
2.34276
2.34266
2.34257
2.34248
2.3424
2.34232
2.34224
2.34217
2.3421
2.34203
2.34196
2.3419
2.34184
2.34178
2.34172
2.34167
2.34162
2.34157
2.34152
2.34148
2.34143
2.34139
2.34135
2.34131
2.34128
2.34124
2.34121
2.34117
2.34114
2.34111
2.34109
2.34106
2.34103
2.34101
2.34099
2.34096
2.34094
2.34092
2.34091
2.34089
2.34087
2.34086
2.34084
2.34083
2.34082
2.49884
2.49459
2.46927
2.4443
2.4253
2.41172
2.40184
2.39434
2.3884
2.38352
2.3794
2.37589
2.37285
2.37019
2.36784
2.36575
2.36388
2.3622
2.36069
2.35931
2.35806
2.35692
2.35588
2.35492
2.35403
2.35322
2.35247
2.35177
2.35112
2.35052
2.34997
2.34945
2.34896
2.34851
2.34809
2.3477
2.34733
2.34698
2.34666
2.34636
2.34607
2.3458
2.34555
2.34532
2.34509
2.34488
2.34468
2.3445
2.34432
2.34415
2.34399
2.34384
2.34369
2.34356
2.34343
2.3433
2.34318
2.34307
2.34296
2.34286
2.34276
2.34266
2.34257
2.34248
2.3424
2.34232
2.34224
2.34217
2.3421
2.34203
2.34196
2.3419
2.34184
2.34178
2.34172
2.34167
2.34162
2.34157
2.34152
2.34148
2.34143
2.34139
2.34135
2.34131
2.34127
2.34124
2.34121
2.34117
2.34114
2.34111
2.34109
2.34106
2.34103
2.34101
2.34099
2.34096
2.34094
2.34092
2.34091
2.34089
2.34087
2.34086
2.34084
2.34083
2.34082
2.49884
2.49459
2.46927
2.4443
2.4253
2.41172
2.40184
2.39434
2.3884
2.38351
2.3794
2.37589
2.37285
2.37019
2.36783
2.36575
2.36388
2.3622
2.36069
2.35931
2.35806
2.35692
2.35588
2.35492
2.35403
2.35322
2.35247
2.35177
2.35112
2.35052
2.34996
2.34944
2.34896
2.34851
2.34809
2.34769
2.34733
2.34698
2.34666
2.34635
2.34607
2.3458
2.34555
2.34531
2.34509
2.34488
2.34468
2.34449
2.34432
2.34415
2.34399
2.34384
2.34369
2.34355
2.34342
2.3433
2.34318
2.34307
2.34296
2.34285
2.34275
2.34266
2.34257
2.34248
2.3424
2.34232
2.34224
2.34217
2.34209
2.34203
2.34196
2.3419
2.34184
2.34178
2.34172
2.34167
2.34162
2.34157
2.34152
2.34148
2.34143
2.34139
2.34135
2.34131
2.34127
2.34124
2.34121
2.34117
2.34114
2.34111
2.34109
2.34106
2.34103
2.34101
2.34099
2.34096
2.34094
2.34092
2.34091
2.34089
2.34087
2.34086
2.34084
2.34083
2.34082
2.49884
2.49459
2.46927
2.4443
2.4253
2.41172
2.40184
2.39434
2.3884
2.38351
2.3794
2.37589
2.37285
2.37018
2.36783
2.36574
2.36388
2.3622
2.36069
2.35931
2.35806
2.35692
2.35587
2.35491
2.35403
2.35322
2.35246
2.35177
2.35112
2.35052
2.34996
2.34944
2.34896
2.34851
2.34809
2.34769
2.34732
2.34698
2.34666
2.34635
2.34607
2.3458
2.34555
2.34531
2.34509
2.34488
2.34468
2.34449
2.34431
2.34415
2.34399
2.34383
2.34369
2.34355
2.34342
2.3433
2.34318
2.34307
2.34296
2.34285
2.34275
2.34266
2.34257
2.34248
2.3424
2.34232
2.34224
2.34216
2.34209
2.34202
2.34196
2.3419
2.34184
2.34178
2.34172
2.34167
2.34162
2.34157
2.34152
2.34147
2.34143
2.34139
2.34135
2.34131
2.34127
2.34124
2.34121
2.34117
2.34114
2.34111
2.34109
2.34106
2.34103
2.34101
2.34099
2.34096
2.34094
2.34092
2.34091
2.34089
2.34087
2.34086
2.34084
2.34083
2.34082
2.49884
2.49459
2.46927
2.44429
2.4253
2.41172
2.40184
2.39434
2.3884
2.38351
2.3794
2.37589
2.37285
2.37018
2.36783
2.36574
2.36388
2.3622
2.36069
2.35931
2.35806
2.35692
2.35587
2.35491
2.35403
2.35322
2.35246
2.35176
2.35112
2.35052
2.34996
2.34944
2.34896
2.34851
2.34808
2.34769
2.34732
2.34698
2.34665
2.34635
2.34607
2.3458
2.34555
2.34531
2.34509
2.34488
2.34468
2.34449
2.34431
2.34414
2.34398
2.34383
2.34369
2.34355
2.34342
2.3433
2.34318
2.34306
2.34295
2.34285
2.34275
2.34266
2.34257
2.34248
2.34239
2.34231
2.34224
2.34216
2.34209
2.34202
2.34196
2.3419
2.34184
2.34178
2.34172
2.34167
2.34162
2.34157
2.34152
2.34147
2.34143
2.34139
2.34135
2.34131
2.34127
2.34124
2.34121
2.34117
2.34114
2.34111
2.34109
2.34106
2.34103
2.34101
2.34099
2.34097
2.34094
2.34093
2.34091
2.34089
2.34087
2.34086
2.34084
2.34083
2.34082
2.49884
2.49459
2.46927
2.44429
2.4253
2.41172
2.40184
2.39434
2.3884
2.38351
2.3794
2.37589
2.37285
2.37018
2.36783
2.36574
2.36387
2.3622
2.36068
2.35931
2.35806
2.35692
2.35587
2.35491
2.35403
2.35321
2.35246
2.35176
2.35112
2.35052
2.34996
2.34944
2.34895
2.3485
2.34808
2.34769
2.34732
2.34697
2.34665
2.34635
2.34606
2.3458
2.34554
2.34531
2.34508
2.34487
2.34468
2.34449
2.34431
2.34414
2.34398
2.34383
2.34369
2.34355
2.34342
2.34329
2.34317
2.34306
2.34295
2.34285
2.34275
2.34266
2.34256
2.34248
2.34239
2.34231
2.34224
2.34216
2.34209
2.34202
2.34196
2.34189
2.34183
2.34178
2.34172
2.34167
2.34162
2.34157
2.34152
2.34147
2.34143
2.34139
2.34135
2.34131
2.34127
2.34124
2.34121
2.34117
2.34114
2.34111
2.34109
2.34106
2.34103
2.34101
2.34099
2.34097
2.34094
2.34093
2.34091
2.34089
2.34087
2.34086
2.34084
2.34083
2.34082
2.49884
2.49459
2.46927
2.44429
2.4253
2.41172
2.40184
2.39434
2.3884
2.38351
2.3794
2.37589
2.37284
2.37018
2.36783
2.36574
2.36387
2.3622
2.36068
2.35931
2.35806
2.35691
2.35587
2.35491
2.35402
2.35321
2.35246
2.35176
2.35111
2.35051
2.34995
2.34943
2.34895
2.3485
2.34808
2.34768
2.34732
2.34697
2.34665
2.34634
2.34606
2.34579
2.34554
2.3453
2.34508
2.34487
2.34467
2.34448
2.34431
2.34414
2.34398
2.34383
2.34368
2.34355
2.34342
2.34329
2.34317
2.34306
2.34295
2.34285
2.34275
2.34265
2.34256
2.34248
2.34239
2.34231
2.34223
2.34216
2.34209
2.34202
2.34196
2.34189
2.34183
2.34178
2.34172
2.34167
2.34162
2.34157
2.34152
2.34147
2.34143
2.34139
2.34135
2.34131
2.34127
2.34124
2.34121
2.34117
2.34114
2.34111
2.34109
2.34106
2.34103
2.34101
2.34099
2.34097
2.34094
2.34093
2.34091
2.34089
2.34087
2.34086
2.34085
2.34084
2.34082
2.49884
2.49459
2.46927
2.44429
2.4253
2.41172
2.40184
2.39434
2.38839
2.38351
2.3794
2.37588
2.37284
2.37018
2.36783
2.36574
2.36387
2.36219
2.36068
2.3593
2.35805
2.35691
2.35586
2.3549
2.35402
2.35321
2.35245
2.35176
2.35111
2.35051
2.34995
2.34943
2.34895
2.3485
2.34807
2.34768
2.34731
2.34697
2.34664
2.34634
2.34606
2.34579
2.34554
2.3453
2.34508
2.34487
2.34467
2.34448
2.3443
2.34414
2.34398
2.34382
2.34368
2.34354
2.34341
2.34329
2.34317
2.34306
2.34295
2.34285
2.34275
2.34265
2.34256
2.34247
2.34239
2.34231
2.34223
2.34216
2.34209
2.34202
2.34196
2.34189
2.34183
2.34178
2.34172
2.34167
2.34161
2.34157
2.34152
2.34147
2.34143
2.34139
2.34135
2.34131
2.34127
2.34124
2.34121
2.34117
2.34114
2.34111
2.34109
2.34106
2.34103
2.34101
2.34099
2.34097
2.34095
2.34093
2.34091
2.34089
2.34087
2.34086
2.34085
2.34084
2.34082
2.49884
2.49459
2.46927
2.44429
2.4253
2.41172
2.40184
2.39434
2.38839
2.38351
2.3794
2.37588
2.37284
2.37018
2.36782
2.36573
2.36387
2.36219
2.36068
2.3593
2.35805
2.35691
2.35586
2.3549
2.35402
2.3532
2.35245
2.35175
2.35111
2.3505
2.34995
2.34943
2.34894
2.34849
2.34807
2.34768
2.34731
2.34696
2.34664
2.34634
2.34605
2.34579
2.34553
2.3453
2.34508
2.34486
2.34467
2.34448
2.3443
2.34413
2.34397
2.34382
2.34368
2.34354
2.34341
2.34329
2.34317
2.34306
2.34295
2.34284
2.34275
2.34265
2.34256
2.34247
2.34239
2.34231
2.34223
2.34216
2.34209
2.34202
2.34196
2.34189
2.34183
2.34177
2.34172
2.34167
2.34161
2.34157
2.34152
2.34147
2.34143
2.34139
2.34135
2.34131
2.34127
2.34124
2.34121
2.34117
2.34114
2.34111
2.34109
2.34106
2.34103
2.34101
2.34099
2.34097
2.34095
2.34093
2.34091
2.34089
2.34088
2.34086
2.34085
2.34084
2.34082
2.49884
2.49459
2.46927
2.44429
2.4253
2.41172
2.40184
2.39434
2.38839
2.38351
2.37939
2.37588
2.37284
2.37017
2.36782
2.36573
2.36386
2.36219
2.36067
2.3593
2.35805
2.3569
2.35586
2.3549
2.35401
2.3532
2.35245
2.35175
2.3511
2.3505
2.34994
2.34942
2.34894
2.34849
2.34807
2.34767
2.3473
2.34696
2.34664
2.34633
2.34605
2.34578
2.34553
2.34529
2.34507
2.34486
2.34466
2.34448
2.3443
2.34413
2.34397
2.34382
2.34368
2.34354
2.34341
2.34328
2.34317
2.34305
2.34295
2.34284
2.34274
2.34265
2.34256
2.34247
2.34239
2.34231
2.34223
2.34216
2.34209
2.34202
2.34195
2.34189
2.34183
2.34177
2.34172
2.34167
2.34161
2.34157
2.34152
2.34147
2.34143
2.34139
2.34135
2.34131
2.34127
2.34124
2.34121
2.34117
2.34114
2.34111
2.34109
2.34106
2.34104
2.34101
2.34099
2.34097
2.34095
2.34093
2.34091
2.34089
2.34088
2.34086
2.34085
2.34084
2.34082
2.49884
2.49459
2.46927
2.44429
2.4253
2.41172
2.40184
2.39434
2.38839
2.3835
2.37939
2.37588
2.37283
2.37017
2.36782
2.36573
2.36386
2.36218
2.36067
2.35929
2.35804
2.3569
2.35585
2.35489
2.35401
2.35319
2.35244
2.35174
2.3511
2.3505
2.34994
2.34942
2.34893
2.34848
2.34806
2.34767
2.3473
2.34695
2.34663
2.34633
2.34604
2.34578
2.34553
2.34529
2.34507
2.34486
2.34466
2.34447
2.34429
2.34413
2.34397
2.34382
2.34367
2.34354
2.34341
2.34328
2.34316
2.34305
2.34294
2.34284
2.34274
2.34265
2.34256
2.34247
2.34239
2.34231
2.34223
2.34216
2.34209
2.34202
2.34195
2.34189
2.34183
2.34177
2.34172
2.34167
2.34161
2.34157
2.34152
2.34147
2.34143
2.34139
2.34135
2.34131
2.34128
2.34124
2.34121
2.34118
2.34114
2.34112
2.34109
2.34106
2.34104
2.34101
2.34099
2.34097
2.34095
2.34093
2.34091
2.34089
2.34088
2.34086
2.34085
2.34084
2.34082
2.49884
2.49458
2.46927
2.44429
2.4253
2.41172
2.40183
2.39433
2.38839
2.3835
2.37939
2.37587
2.37283
2.37017
2.36781
2.36572
2.36386
2.36218
2.36066
2.35929
2.35804
2.35689
2.35585
2.35489
2.354
2.35319
2.35243
2.35174
2.35109
2.35049
2.34993
2.34941
2.34893
2.34848
2.34806
2.34766
2.34729
2.34695
2.34663
2.34632
2.34604
2.34577
2.34552
2.34529
2.34506
2.34485
2.34466
2.34447
2.34429
2.34412
2.34396
2.34381
2.34367
2.34353
2.3434
2.34328
2.34316
2.34305
2.34294
2.34284
2.34274
2.34265
2.34256
2.34247
2.34239
2.34231
2.34223
2.34216
2.34209
2.34202
2.34195
2.34189
2.34183
2.34177
2.34172
2.34167
2.34161
2.34157
2.34152
2.34147
2.34143
2.34139
2.34135
2.34131
2.34128
2.34124
2.34121
2.34118
2.34115
2.34112
2.34109
2.34106
2.34104
2.34101
2.34099
2.34097
2.34095
2.34093
2.34091
2.34089
2.34088
2.34086
2.34085
2.34084
2.34083
2.49884
2.49458
2.46927
2.44429
2.42529
2.41171
2.40183
2.39433
2.38838
2.3835
2.37939
2.37587
2.37283
2.37016
2.36781
2.36572
2.36385
2.36217
2.36066
2.35928
2.35803
2.35689
2.35584
2.35488
2.354
2.35318
2.35243
2.35173
2.35108
2.35048
2.34993
2.34941
2.34892
2.34847
2.34805
2.34766
2.34729
2.34694
2.34662
2.34632
2.34603
2.34577
2.34552
2.34528
2.34506
2.34485
2.34465
2.34446
2.34429
2.34412
2.34396
2.34381
2.34367
2.34353
2.3434
2.34328
2.34316
2.34305
2.34294
2.34284
2.34274
2.34265
2.34256
2.34247
2.34239
2.34231
2.34223
2.34216
2.34209
2.34202
2.34195
2.34189
2.34183
2.34178
2.34172
2.34167
2.34162
2.34157
2.34152
2.34148
2.34143
2.34139
2.34135
2.34131
2.34128
2.34124
2.34121
2.34118
2.34115
2.34112
2.34109
2.34106
2.34104
2.34102
2.34099
2.34097
2.34095
2.34093
2.34091
2.3409
2.34088
2.34087
2.34085
2.34084
2.34083
2.49884
2.49458
2.46927
2.44429
2.42529
2.41171
2.40183
2.39433
2.38838
2.38349
2.37938
2.37587
2.37282
2.37016
2.3678
2.36571
2.36385
2.36217
2.36065
2.35928
2.35802
2.35688
2.35583
2.35487
2.35399
2.35317
2.35242
2.35172
2.35108
2.35048
2.34992
2.3494
2.34892
2.34846
2.34804
2.34765
2.34728
2.34694
2.34662
2.34631
2.34603
2.34576
2.34551
2.34528
2.34505
2.34485
2.34465
2.34446
2.34428
2.34412
2.34396
2.34381
2.34367
2.34353
2.3434
2.34328
2.34316
2.34305
2.34294
2.34284
2.34274
2.34265
2.34256
2.34247
2.34239
2.34231
2.34223
2.34216
2.34209
2.34202
2.34196
2.34189
2.34183
2.34178
2.34172
2.34167
2.34162
2.34157
2.34152
2.34148
2.34144
2.34139
2.34136
2.34132
2.34128
2.34125
2.34121
2.34118
2.34115
2.34112
2.3411
2.34107
2.34104
2.34102
2.341
2.34098
2.34096
2.34094
2.34092
2.3409
2.34089
2.34087
2.34086
2.34085
2.34083
2.49884
2.49458
2.46927
2.44429
2.42529
2.41171
2.40183
2.39432
2.38838
2.38349
2.37938
2.37586
2.37282
2.37015
2.3678
2.36571
2.36384
2.36216
2.36064
2.35927
2.35802
2.35687
2.35583
2.35487
2.35398
2.35317
2.35241
2.35172
2.35107
2.35047
2.34991
2.34939
2.34891
2.34846
2.34804
2.34765
2.34728
2.34693
2.34661
2.34631
2.34603
2.34576
2.34551
2.34528
2.34505
2.34485
2.34465
2.34446
2.34429
2.34412
2.34396
2.34381
2.34367
2.34353
2.3434
2.34328
2.34316
2.34305
2.34294
2.34284
2.34274
2.34265
2.34256
2.34247
2.34239
2.34231
2.34224
2.34216
2.34209
2.34203
2.34196
2.3419
2.34184
2.34178
2.34173
2.34168
2.34163
2.34158
2.34153
2.34149
2.34144
2.3414
2.34136
2.34133
2.34129
2.34126
2.34122
2.34119
2.34116
2.34113
2.3411
2.34108
2.34105
2.34103
2.34101
2.34099
2.34097
2.34095
2.34093
2.34091
2.3409
2.34088
2.34087
2.34086
2.34084
2.49884
2.49458
2.46926
2.44429
2.42529
2.41171
2.40182
2.39432
2.38837
2.38348
2.37937
2.37585
2.37281
2.37014
2.36779
2.3657
2.36383
2.36215
2.36063
2.35926
2.35801
2.35686
2.35582
2.35486
2.35397
2.35316
2.35241
2.35171
2.35106
2.35046
2.34991
2.34939
2.3489
2.34845
2.34803
2.34764
2.34728
2.34693
2.34661
2.34631
2.34603
2.34576
2.34551
2.34528
2.34506
2.34485
2.34465
2.34447
2.34429
2.34413
2.34397
2.34382
2.34368
2.34354
2.34341
2.34329
2.34317
2.34306
2.34296
2.34286
2.34276
2.34266
2.34258
2.34249
2.34241
2.34233
2.34225
2.34218
2.34211
2.34205
2.34198
2.34192
2.34186
2.3418
2.34175
2.3417
2.34165
2.3416
2.34155
2.34151
2.34147
2.34143
2.34139
2.34135
2.34131
2.34128
2.34125
2.34121
2.34118
2.34116
2.34113
2.3411
2.34108
2.34105
2.34103
2.34101
2.34099
2.34097
2.34095
2.34094
2.34092
2.34091
2.34089
2.34088
2.34087
2.49884
2.49458
2.46926
2.44428
2.42528
2.4117
2.40182
2.39431
2.38837
2.38348
2.37936
2.37585
2.3728
2.37014
2.36778
2.36569
2.36382
2.36214
2.36063
2.35925
2.358
2.35686
2.35581
2.35486
2.35397
2.35316
2.35241
2.35171
2.35107
2.35047
2.34991
2.3494
2.34892
2.34847
2.34805
2.34766
2.34729
2.34695
2.34663
2.34633
2.34605
2.34579
2.34554
2.34531
2.34509
2.34488
2.34469
2.3445
2.34433
2.34416
2.34401
2.34386
2.34372
2.34358
2.34346
2.34334
2.34322
2.34311
2.34301
2.3429
2.34281
2.34272
2.34263
2.34254
2.34246
2.34238
2.34231
2.34224
2.34217
2.3421
2.34204
2.34198
2.34192
2.34186
2.34181
2.34176
2.34171
2.34166
2.34162
2.34157
2.34153
2.34149
2.34145
2.34141
2.34138
2.34134
2.34131
2.34128
2.34125
2.34122
2.3412
2.34117
2.34115
2.34112
2.3411
2.34108
2.34106
2.34104
2.34102
2.34101
2.34099
2.34098
2.34096
2.34095
2.34094
2.49884
2.49458
2.46926
2.44428
2.42528
2.4117
2.40181
2.39431
2.38836
2.38347
2.37936
2.37584
2.37279
2.37013
2.36777
2.36568
2.36382
2.36214
2.36062
2.35925
2.358
2.35686
2.35582
2.35486
2.35398
2.35317
2.35243
2.35174
2.35109
2.3505
2.34995
2.34944
2.34896
2.34852
2.34811
2.34772
2.34736
2.34703
2.34671
2.34642
2.34614
2.34588
2.34564
2.34541
2.3452
2.34499
2.3448
2.34462
2.34445
2.34429
2.34414
2.344
2.34386
2.34373
2.3436
2.34349
2.34337
2.34327
2.34316
2.34307
2.34297
2.34288
2.3428
2.34271
2.34264
2.34256
2.34249
2.34242
2.34235
2.34229
2.34223
2.34217
2.34211
2.34205
2.342
2.34195
2.3419
2.34186
2.34181
2.34177
2.34173
2.34169
2.34165
2.34162
2.34158
2.34155
2.34152
2.34149
2.34146
2.34143
2.34141
2.34138
2.34136
2.34134
2.34131
2.34129
2.34127
2.34126
2.34124
2.34122
2.34121
2.3412
2.34118
2.34117
2.34116
2.49884
2.49458
2.46926
2.44428
2.42529
2.41171
2.40182
2.39432
2.38837
2.38348
2.37937
2.37586
2.37282
2.37016
2.36781
2.36573
2.36388
2.36221
2.36071
2.35935
2.35811
2.35699
2.35596
2.35502
2.35416
2.35336
2.35263
2.35196
2.35134
2.35076
2.35022
2.34973
2.34927
2.34884
2.34844
2.34807
2.34773
2.34741
2.34711
2.34683
2.34657
2.34632
2.34609
2.34587
2.34567
2.34548
2.3453
2.34513
2.34497
2.34482
2.34468
2.34454
2.34442
2.34429
2.34418
2.34407
2.34396
2.34386
2.34377
2.34368
2.34359
2.34351
2.34343
2.34335
2.34328
2.34321
2.34314
2.34308
2.34302
2.34296
2.3429
2.34285
2.34279
2.34274
2.3427
2.34265
2.34261
2.34256
2.34252
2.34249
2.34245
2.34241
2.34238
2.34235
2.34232
2.34229
2.34226
2.34223
2.3422
2.34218
2.34216
2.34213
2.34211
2.34209
2.34207
2.34206
2.34204
2.34202
2.34201
2.342
2.34198
2.34197
2.34196
2.34195
2.34194
2.49884
2.49459
2.46927
2.44431
2.42534
2.41179
2.40194
2.39448
2.38857
2.38374
2.37968
2.37622
2.37325
2.37065
2.36837
2.36636
2.36457
2.36298
2.36155
2.36026
2.3591
2.35804
2.35709
2.35622
2.35543
2.3547
2.35404
2.35343
2.35287
2.35236
2.35189
2.35145
2.35105
2.35068
2.35034
2.35002
2.34973
2.34946
2.34921
2.34897
2.34876
2.34855
2.34836
2.34819
2.34802
2.34787
2.34773
2.34759
2.34746
2.34734
2.34723
2.34712
2.34702
2.34693
2.34684
2.34675
2.34667
2.34659
2.34652
2.34645
2.34638
2.34632
2.34626
2.3462
2.34614
2.34609
2.34604
2.34599
2.34595
2.3459
2.34586
2.34582
2.34578
2.34574
2.34571
2.34568
2.34564
2.34561
2.34558
2.34555
2.34553
2.3455
2.34548
2.34545
2.34543
2.34541
2.34539
2.34537
2.34535
2.34534
2.34532
2.3453
2.34529
2.34528
2.34526
2.34525
2.34524
2.34523
2.34522
2.34521
2.3452
2.34519
2.34519
2.34518
2.34518
2.49894
2.49504
2.47034
2.44618
2.42808
2.41538
2.40636
2.39969
2.39456
2.39046
2.38712
2.38436
2.38204
2.38008
2.3784
2.37697
2.37573
2.37465
2.37371
2.37288
2.37216
2.37152
2.37095
2.37045
2.37
2.3696
2.36924
2.36892
2.36863
2.36837
2.36813
2.36792
2.36772
2.36755
2.36739
2.36724
2.36711
2.36698
2.36687
2.36676
2.36667
2.36658
2.3665
2.36642
2.36635
2.36629
2.36623
2.36617
2.36612
2.36607
2.36603
2.36598
2.36594
2.3659
2.36587
2.36583
2.3658
2.36577
2.36574
2.36572
2.36569
2.36567
2.36565
2.36562
2.3656
2.36558
2.36557
2.36555
2.36553
2.36552
2.3655
2.36549
2.36547
2.36546
2.36545
2.36543
2.36542
2.36541
2.3654
2.36539
2.36538
2.36538
2.36537
2.36536
2.36535
2.36535
2.36534
2.36533
2.36533
2.36532
2.36532
2.36531
2.36531
2.36531
2.3653
2.3653
2.3653
2.36529
2.36529
2.36529
2.36529
2.36529
2.36528
2.36528
2.36528
0.931497
0.962885
0.968171
0.9679
0.966467
0.964847
0.96322
0.961665
0.960213
0.958872
0.957645
0.95653
0.955517
0.954595
0.953756
0.952991
0.952293
0.951654
0.951069
0.95053
0.950034
0.949577
0.949154
0.948763
0.948401
0.948064
0.947752
0.947461
0.94719
0.946937
0.946701
0.946481
0.946275
0.946082
0.945901
0.945732
0.945574
0.945425
0.945285
0.945154
0.94503
0.944914
0.944805
0.944701
0.944604
0.944512
0.944425
0.944343
0.944265
0.944191
0.944121
0.944055
0.943991
0.943931
0.943874
0.943819
0.943767
0.943718
0.943671
0.943625
0.943582
0.943541
0.943501
0.943463
0.943426
0.943392
0.943358
0.943326
0.943295
0.943266
0.943237
0.94321
0.943184
0.943159
0.943135
0.943112
0.94309
0.943068
0.943048
0.943028
0.943009
0.942991
0.942974
0.942958
0.942942
0.942926
0.942912
0.942898
0.942885
0.942872
0.94286
0.942848
0.942837
0.942826
0.942816
0.942807
0.942798
0.942789
0.942781
0.942773
0.942766
0.942759
0.942752
0.942747
0.94274
0.931497
0.962885
0.968171
0.9679
0.966467
0.964847
0.963219
0.961664
0.960212
0.958871
0.957644
0.956529
0.955516
0.954594
0.953755
0.95299
0.952292
0.951654
0.951068
0.950529
0.950033
0.949576
0.949154
0.948763
0.948401
0.948065
0.947752
0.947461
0.94719
0.946938
0.946702
0.946482
0.946276
0.946083
0.945903
0.945734
0.945575
0.945426
0.945287
0.945155
0.945032
0.944916
0.944806
0.944703
0.944605
0.944513
0.944426
0.944344
0.944266
0.944192
0.944122
0.944056
0.943993
0.943932
0.943875
0.943821
0.943769
0.943719
0.943672
0.943626
0.943583
0.943541
0.943502
0.943464
0.943427
0.943392
0.943359
0.943327
0.943296
0.943266
0.943238
0.943211
0.943185
0.943159
0.943135
0.943112
0.94309
0.943069
0.943048
0.943029
0.94301
0.942992
0.942974
0.942958
0.942942
0.942927
0.942912
0.942898
0.942885
0.942872
0.94286
0.942848
0.942837
0.942826
0.942816
0.942807
0.942797
0.942789
0.942781
0.942773
0.942765
0.942759
0.942752
0.942747
0.94274
0.931497
0.962885
0.968171
0.9679
0.966467
0.964846
0.963219
0.961664
0.960212
0.958871
0.957644
0.956528
0.955516
0.954594
0.953755
0.95299
0.952292
0.951653
0.951068
0.950529
0.950033
0.949576
0.949154
0.948763
0.948401
0.948064
0.947752
0.947461
0.94719
0.946938
0.946702
0.946482
0.946276
0.946083
0.945903
0.945734
0.945575
0.945426
0.945287
0.945156
0.945032
0.944916
0.944806
0.944703
0.944606
0.944514
0.944427
0.944345
0.944267
0.944193
0.944123
0.944056
0.943993
0.943933
0.943876
0.943821
0.943769
0.943719
0.943672
0.943627
0.943583
0.943542
0.943502
0.943464
0.943428
0.943393
0.943359
0.943327
0.943296
0.943267
0.943238
0.943211
0.943185
0.94316
0.943136
0.943112
0.94309
0.943069
0.943048
0.943029
0.94301
0.942992
0.942974
0.942958
0.942942
0.942927
0.942912
0.942898
0.942885
0.942872
0.94286
0.942848
0.942837
0.942826
0.942816
0.942807
0.942797
0.942789
0.942781
0.942773
0.942765
0.942759
0.942752
0.942747
0.94274
0.931497
0.962885
0.968171
0.9679
0.966467
0.964846
0.963219
0.961664
0.960211
0.958871
0.957643
0.956528
0.955515
0.954594
0.953755
0.95299
0.952292
0.951653
0.951067
0.950529
0.950033
0.949576
0.949153
0.948763
0.9484
0.948064
0.947752
0.947461
0.94719
0.946937
0.946702
0.946481
0.946276
0.946083
0.945903
0.945734
0.945575
0.945426
0.945287
0.945156
0.945032
0.944916
0.944806
0.944703
0.944606
0.944514
0.944427
0.944345
0.944267
0.944193
0.944123
0.944056
0.943993
0.943933
0.943876
0.943821
0.943769
0.943719
0.943672
0.943627
0.943583
0.943542
0.943502
0.943464
0.943428
0.943393
0.943359
0.943327
0.943296
0.943267
0.943238
0.943211
0.943185
0.94316
0.943136
0.943112
0.94309
0.943069
0.943048
0.943029
0.94301
0.942992
0.942974
0.942958
0.942942
0.942927
0.942912
0.942898
0.942885
0.942872
0.94286
0.942848
0.942837
0.942826
0.942816
0.942807
0.942797
0.942789
0.942781
0.942773
0.942765
0.942759
0.942752
0.942747
0.94274
0.931497
0.962885
0.968171
0.9679
0.966467
0.964846
0.963219
0.961664
0.960211
0.95887
0.957643
0.956528
0.955515
0.954594
0.953754
0.95299
0.952291
0.951653
0.951067
0.950529
0.950033
0.949576
0.949153
0.948762
0.9484
0.948064
0.947752
0.947461
0.94719
0.946937
0.946702
0.946481
0.946275
0.946083
0.945902
0.945733
0.945575
0.945426
0.945287
0.945155
0.945032
0.944916
0.944806
0.944703
0.944606
0.944514
0.944427
0.944344
0.944266
0.944193
0.944123
0.944056
0.943993
0.943933