/*--------------------------------*- C++ -*----------------------------------*\
| =========                 |                                                 |
| \\      /  F ield         | OpenFOAM: The Open Source CFD Toolbox           |
|  \\    /   O peration     | Version:  5.x                                   |
|   \\  /    A nd           | Web:      www.OpenFOAM.org                      |
|    \\/     M anipulation  |                                                 |
\*---------------------------------------------------------------------------*/
FoamFile
{
    version     2.0;
    format      ascii;
    class       volScalarField;
    location    "0";
    object      nut;
}
// * * * * * * * * * * * * * * * * * * * * * * * * * * * * * * * * * * * * * //

dimensions      [0 2 -1 0 0 0 0];

internalField   nonuniform List<scalar> 
124250
(
0.0692563
0.069217
0.0689821
0.0687487
0.0685702
0.068442
0.0683484
0.0682772
0.0682207
0.0681742
0.0681349
0.0681014
0.0680723
0.0680468
0.0680243
0.0680043
0.0679864
0.0679704
0.0679558
0.0679426
0.0679306
0.0679197
0.0679096
0.0679004
0.0678919
0.0678841
0.0678768
0.0678701
0.0678639
0.0678581
0.0678528
0.0678478
0.0678431
0.0678387
0.0678347
0.0678309
0.0678273
0.067824
0.0678209
0.067818
0.0678152
0.0678127
0.0678102
0.067808
0.0678058
0.0678038
0.0678019
0.0678
0.0677983
0.0677967
0.0677952
0.0677937
0.0677923
0.067791
0.0677897
0.0677885
0.0677874
0.0677863
0.0677852
0.0677842
0.0677833
0.0677824
0.0677815
0.0677806
0.0677798
0.067779
0.0677783
0.0677776
0.0677769
0.0677762
0.0677756
0.067775
0.0677744
0.0677738
0.0677733
0.0677728
0.0677723
0.0677718
0.0677713
0.0677709
0.0677705
0.0677701
0.0677697
0.0677693
0.067769
0.0677686
0.0677683
0.067768
0.0677677
0.0677674
0.0677671
0.0677669
0.0677666
0.0677664
0.0677662
0.067766
0.0677658
0.0677656
0.0677654
0.0677652
0.0677651
0.0677649
0.0677648
0.0677647
0.0677645
0.0692563
0.069217
0.0689821
0.0687487
0.0685702
0.068442
0.0683484
0.0682772
0.0682207
0.0681741
0.0681349
0.0681014
0.0680723
0.0680468
0.0680243
0.0680043
0.0679864
0.0679703
0.0679558
0.0679426
0.0679306
0.0679197
0.0679096
0.0679004
0.0678919
0.0678841
0.0678768
0.0678701
0.0678639
0.0678582
0.0678528
0.0678478
0.0678431
0.0678388
0.0678347
0.0678309
0.0678274
0.0678241
0.0678209
0.067818
0.0678153
0.0678127
0.0678103
0.067808
0.0678058
0.0678038
0.0678019
0.0678001
0.0677984
0.0677967
0.0677952
0.0677937
0.0677923
0.067791
0.0677898
0.0677886
0.0677874
0.0677863
0.0677853
0.0677843
0.0677833
0.0677824
0.0677815
0.0677807
0.0677798
0.0677791
0.0677783
0.0677776
0.0677769
0.0677762
0.0677756
0.067775
0.0677744
0.0677739
0.0677733
0.0677728
0.0677723
0.0677718
0.0677714
0.0677709
0.0677705
0.0677701
0.0677697
0.0677693
0.067769
0.0677686
0.0677683
0.067768
0.0677677
0.0677674
0.0677671
0.0677669
0.0677666
0.0677664
0.0677662
0.067766
0.0677658
0.0677656
0.0677654
0.0677652
0.0677651
0.0677649
0.0677648
0.0677647
0.0677645
0.0692563
0.069217
0.0689821
0.0687487
0.0685702
0.068442
0.0683484
0.0682772
0.0682206
0.0681741
0.0681349
0.0681013
0.0680723
0.0680468
0.0680243
0.0680043
0.0679864
0.0679703
0.0679558
0.0679426
0.0679306
0.0679197
0.0679096
0.0679004
0.0678919
0.0678841
0.0678768
0.0678701
0.0678639
0.0678581
0.0678528
0.0678478
0.0678431
0.0678388
0.0678347
0.0678309
0.0678274
0.0678241
0.067821
0.067818
0.0678153
0.0678127
0.0678103
0.067808
0.0678059
0.0678038
0.0678019
0.0678001
0.0677984
0.0677968
0.0677952
0.0677937
0.0677924
0.067791
0.0677898
0.0677886
0.0677874
0.0677863
0.0677853
0.0677843
0.0677833
0.0677824
0.0677815
0.0677807
0.0677798
0.0677791
0.0677783
0.0677776
0.0677769
0.0677763
0.0677756
0.067775
0.0677744
0.0677739
0.0677733
0.0677728
0.0677723
0.0677718
0.0677714
0.0677709
0.0677705
0.0677701
0.0677697
0.0677693
0.067769
0.0677686
0.0677683
0.067768
0.0677677
0.0677674
0.0677671
0.0677669
0.0677666
0.0677664
0.0677662
0.067766
0.0677658
0.0677656
0.0677654
0.0677652
0.0677651
0.0677649
0.0677648
0.0677647
0.0677645
0.0692563
0.069217
0.0689821
0.0687487
0.0685702
0.068442
0.0683484
0.0682772
0.0682206
0.0681741
0.0681349
0.0681013
0.0680723
0.0680468
0.0680243
0.0680043
0.0679864
0.0679703
0.0679558
0.0679426
0.0679306
0.0679197
0.0679096
0.0679004
0.0678919
0.0678841
0.0678768
0.0678701
0.0678639
0.0678581
0.0678528
0.0678478
0.0678431
0.0678388
0.0678347
0.0678309
0.0678274
0.0678241
0.067821
0.067818
0.0678153
0.0678127
0.0678103
0.067808
0.0678059
0.0678038
0.0678019
0.0678001
0.0677984
0.0677968
0.0677952
0.0677937
0.0677924
0.067791
0.0677898
0.0677886
0.0677874
0.0677863
0.0677853
0.0677843
0.0677833
0.0677824
0.0677815
0.0677807
0.0677798
0.0677791
0.0677783
0.0677776
0.0677769
0.0677763
0.0677756
0.067775
0.0677744
0.0677739
0.0677733
0.0677728
0.0677723
0.0677718
0.0677714
0.0677709
0.0677705
0.0677701
0.0677697
0.0677693
0.067769
0.0677686
0.0677683
0.067768
0.0677677
0.0677674
0.0677671
0.0677669
0.0677666
0.0677664
0.0677662
0.067766
0.0677658
0.0677656
0.0677654
0.0677652
0.0677651
0.0677649
0.0677648
0.0677647
0.0677645
0.0692563
0.069217
0.0689821
0.0687487
0.0685702
0.068442
0.0683484
0.0682772
0.0682206
0.0681741
0.0681349
0.0681013
0.0680723
0.0680468
0.0680243
0.0680043
0.0679864
0.0679703
0.0679558
0.0679426
0.0679306
0.0679196
0.0679096
0.0679004
0.0678919
0.0678841
0.0678768
0.0678701
0.0678639
0.0678581
0.0678528
0.0678478
0.0678431
0.0678388
0.0678347
0.0678309
0.0678274
0.0678241
0.0678209
0.067818
0.0678153
0.0678127
0.0678103
0.067808
0.0678059
0.0678038
0.0678019
0.0678001
0.0677984
0.0677967
0.0677952
0.0677937
0.0677924
0.067791
0.0677898
0.0677886
0.0677874
0.0677863
0.0677853
0.0677843
0.0677833
0.0677824
0.0677815
0.0677807
0.0677798
0.0677791
0.0677783
0.0677776
0.0677769
0.0677763
0.0677756
0.067775
0.0677744
0.0677739
0.0677733
0.0677728
0.0677723
0.0677718
0.0677714
0.0677709
0.0677705
0.0677701
0.0677697
0.0677693
0.067769
0.0677686
0.0677683
0.067768
0.0677677
0.0677674
0.0677671
0.0677669
0.0677666
0.0677664
0.0677662
0.067766
0.0677658
0.0677656
0.0677654
0.0677652
0.0677651
0.0677649
0.0677648
0.0677647
0.0677645
0.0692563
0.069217
0.0689821
0.0687487
0.0685702
0.068442
0.0683484
0.0682772
0.0682206
0.0681741
0.0681349
0.0681013
0.0680723
0.0680468
0.0680243
0.0680043
0.0679864
0.0679703
0.0679558
0.0679426
0.0679306
0.0679196
0.0679096
0.0679004
0.0678919
0.0678841
0.0678768
0.0678701
0.0678639
0.0678581
0.0678528
0.0678478
0.0678431
0.0678388
0.0678347
0.0678309
0.0678274
0.0678241
0.0678209
0.067818
0.0678153
0.0678127
0.0678103
0.067808
0.0678058
0.0678038
0.0678019
0.0678001
0.0677984
0.0677967
0.0677952
0.0677937
0.0677923
0.067791
0.0677898
0.0677886
0.0677874
0.0677863
0.0677853
0.0677843
0.0677833
0.0677824
0.0677815
0.0677806
0.0677798
0.0677791
0.0677783
0.0677776
0.0677769
0.0677762
0.0677756
0.067775
0.0677744
0.0677739
0.0677733
0.0677728
0.0677723
0.0677718
0.0677714
0.0677709
0.0677705
0.0677701
0.0677697
0.0677693
0.067769
0.0677686
0.0677683
0.067768
0.0677677
0.0677674
0.0677671
0.0677669
0.0677666
0.0677664
0.0677662
0.067766
0.0677658
0.0677656
0.0677654
0.0677652
0.0677651
0.0677649
0.0677648
0.0677647
0.0677645
0.0692563
0.069217
0.0689821
0.0687487
0.0685702
0.068442
0.0683484
0.0682772
0.0682206
0.0681741
0.0681349
0.0681013
0.0680723
0.0680468
0.0680243
0.0680043
0.0679864
0.0679703
0.0679558
0.0679426
0.0679306
0.0679196
0.0679096
0.0679004
0.0678919
0.0678841
0.0678768
0.0678701
0.0678639
0.0678581
0.0678528
0.0678478
0.0678431
0.0678388
0.0678347
0.0678309
0.0678274
0.067824
0.0678209
0.067818
0.0678153
0.0678127
0.0678103
0.067808
0.0678058
0.0678038
0.0678019
0.0678001
0.0677984
0.0677967
0.0677952
0.0677937
0.0677923
0.067791
0.0677897
0.0677885
0.0677874
0.0677863
0.0677853
0.0677843
0.0677833
0.0677824
0.0677815
0.0677806
0.0677798
0.0677791
0.0677783
0.0677776
0.0677769
0.0677762
0.0677756
0.067775
0.0677744
0.0677738
0.0677733
0.0677728
0.0677723
0.0677718
0.0677714
0.0677709
0.0677705
0.0677701
0.0677697
0.0677693
0.067769
0.0677686
0.0677683
0.067768
0.0677677
0.0677674
0.0677671
0.0677669
0.0677666
0.0677664
0.0677662
0.067766
0.0677658
0.0677656
0.0677654
0.0677652
0.0677651
0.0677649
0.0677648
0.0677647
0.0677645
0.0692563
0.069217
0.0689821
0.0687487
0.0685702
0.068442
0.0683484
0.0682772
0.0682206
0.0681741
0.0681349
0.0681013
0.0680723
0.0680468
0.0680243
0.0680043
0.0679864
0.0679703
0.0679558
0.0679426
0.0679306
0.0679196
0.0679096
0.0679004
0.0678919
0.0678841
0.0678768
0.0678701
0.0678639
0.0678581
0.0678528
0.0678478
0.0678431
0.0678388
0.0678347
0.0678309
0.0678274
0.067824
0.0678209
0.067818
0.0678153
0.0678127
0.0678103
0.067808
0.0678058
0.0678038
0.0678019
0.0678001
0.0677983
0.0677967
0.0677952
0.0677937
0.0677923
0.067791
0.0677897
0.0677885
0.0677874
0.0677863
0.0677852
0.0677842
0.0677833
0.0677824
0.0677815
0.0677806
0.0677798
0.067779
0.0677783
0.0677776
0.0677769
0.0677762
0.0677756
0.067775
0.0677744
0.0677738
0.0677733
0.0677728
0.0677723
0.0677718
0.0677713
0.0677709
0.0677705
0.0677701
0.0677697
0.0677693
0.067769
0.0677686
0.0677683
0.067768
0.0677677
0.0677674
0.0677671
0.0677669
0.0677666
0.0677664
0.0677662
0.067766
0.0677658
0.0677656
0.0677654
0.0677652
0.0677651
0.0677649
0.0677648
0.0677647
0.0677645
0.0692563
0.069217
0.0689821
0.0687487
0.0685702
0.068442
0.0683484
0.0682772
0.0682206
0.0681741
0.0681349
0.0681013
0.0680723
0.0680468
0.0680243
0.0680043
0.0679864
0.0679703
0.0679558
0.0679426
0.0679306
0.0679196
0.0679096
0.0679004
0.0678919
0.067884
0.0678768
0.0678701
0.0678639
0.0678581
0.0678527
0.0678477
0.0678431
0.0678387
0.0678347
0.0678309
0.0678273
0.067824
0.0678209
0.067818
0.0678152
0.0678127
0.0678102
0.067808
0.0678058
0.0678038
0.0678019
0.0678001
0.0677983
0.0677967
0.0677952
0.0677937
0.0677923
0.067791
0.0677897
0.0677885
0.0677874
0.0677863
0.0677852
0.0677842
0.0677833
0.0677824
0.0677815
0.0677806
0.0677798
0.067779
0.0677783
0.0677776
0.0677769
0.0677762
0.0677756
0.067775
0.0677744
0.0677738
0.0677733
0.0677728
0.0677723
0.0677718
0.0677713
0.0677709
0.0677705
0.0677701
0.0677697
0.0677693
0.067769
0.0677686
0.0677683
0.067768
0.0677677
0.0677674
0.0677671
0.0677669
0.0677666
0.0677664
0.0677662
0.067766
0.0677658
0.0677656
0.0677654
0.0677652
0.0677651
0.0677649
0.0677648
0.0677647
0.0677645
0.0692563
0.069217
0.0689821
0.0687487
0.0685702
0.068442
0.0683484
0.0682772
0.0682206
0.0681741
0.0681349
0.0681013
0.0680723
0.0680468
0.0680243
0.0680043
0.0679864
0.0679703
0.0679558
0.0679426
0.0679306
0.0679196
0.0679096
0.0679004
0.0678919
0.067884
0.0678768
0.0678701
0.0678639
0.0678581
0.0678527
0.0678477
0.0678431
0.0678387
0.0678347
0.0678309
0.0678273
0.067824
0.0678209
0.067818
0.0678152
0.0678127
0.0678102
0.067808
0.0678058
0.0678038
0.0678019
0.0678
0.0677983
0.0677967
0.0677952
0.0677937
0.0677923
0.067791
0.0677897
0.0677885
0.0677874
0.0677863
0.0677852
0.0677842
0.0677833
0.0677823
0.0677815
0.0677806
0.0677798
0.067779
0.0677783
0.0677776
0.0677769
0.0677762
0.0677756
0.067775
0.0677744
0.0677738
0.0677733
0.0677728
0.0677723
0.0677718
0.0677713
0.0677709
0.0677705
0.0677701
0.0677697
0.0677693
0.067769
0.0677686
0.0677683
0.067768
0.0677677
0.0677674
0.0677671
0.0677669
0.0677666
0.0677664
0.0677662
0.067766
0.0677658
0.0677656
0.0677654
0.0677652
0.0677651
0.0677649
0.0677648
0.0677647
0.0677645
0.0692563
0.069217
0.0689821
0.0687487
0.0685702
0.068442
0.0683484
0.0682772
0.0682206
0.0681741
0.0681349
0.0681013
0.0680722
0.0680468
0.0680243
0.0680043
0.0679864
0.0679703
0.0679558
0.0679426
0.0679306
0.0679196
0.0679096
0.0679003
0.0678919
0.067884
0.0678768
0.0678701
0.0678639
0.0678581
0.0678527
0.0678477
0.0678431
0.0678387
0.0678347
0.0678309
0.0678273
0.067824
0.0678209
0.067818
0.0678152
0.0678126
0.0678102
0.0678079
0.0678058
0.0678038
0.0678018
0.0678
0.0677983
0.0677967
0.0677951
0.0677937
0.0677923
0.067791
0.0677897
0.0677885
0.0677874
0.0677863
0.0677852
0.0677842
0.0677833
0.0677823
0.0677815
0.0677806
0.0677798
0.067779
0.0677783
0.0677776
0.0677769
0.0677762
0.0677756
0.067775
0.0677744
0.0677738
0.0677733
0.0677728
0.0677723
0.0677718
0.0677713
0.0677709
0.0677705
0.0677701
0.0677697
0.0677693
0.067769
0.0677686
0.0677683
0.067768
0.0677677
0.0677674
0.0677671
0.0677669
0.0677666
0.0677664
0.0677662
0.067766
0.0677658
0.0677656
0.0677654
0.0677652
0.0677651
0.0677649
0.0677648
0.0677647
0.0677645
0.0692563
0.069217
0.0689821
0.0687487
0.0685702
0.068442
0.0683484
0.0682772
0.0682206
0.0681741
0.0681349
0.0681013
0.0680722
0.0680468
0.0680243
0.0680042
0.0679864
0.0679703
0.0679558
0.0679426
0.0679306
0.0679196
0.0679095
0.0679003
0.0678918
0.067884
0.0678768
0.0678701
0.0678638
0.0678581
0.0678527
0.0678477
0.067843
0.0678387
0.0678346
0.0678308
0.0678273
0.067824
0.0678209
0.0678179
0.0678152
0.0678126
0.0678102
0.0678079
0.0678058
0.0678037
0.0678018
0.0678
0.0677983
0.0677967
0.0677951
0.0677937
0.0677923
0.0677909
0.0677897
0.0677885
0.0677873
0.0677862
0.0677852
0.0677842
0.0677832
0.0677823
0.0677814
0.0677806
0.0677798
0.067779
0.0677783
0.0677776
0.0677769
0.0677762
0.0677756
0.067775
0.0677744
0.0677738
0.0677733
0.0677728
0.0677723
0.0677718
0.0677713
0.0677709
0.0677705
0.0677701
0.0677697
0.0677693
0.067769
0.0677686
0.0677683
0.067768
0.0677677
0.0677674
0.0677671
0.0677669
0.0677666
0.0677664
0.0677662
0.067766
0.0677658
0.0677656
0.0677654
0.0677652
0.0677651
0.0677649
0.0677648
0.0677647
0.0677645
0.0692563
0.069217
0.0689821
0.0687487
0.0685702
0.068442
0.0683484
0.0682772
0.0682206
0.0681741
0.0681349
0.0681013
0.0680722
0.0680468
0.0680242
0.0680042
0.0679863
0.0679703
0.0679557
0.0679426
0.0679305
0.0679196
0.0679095
0.0679003
0.0678918
0.067884
0.0678768
0.06787
0.0678638
0.067858
0.0678527
0.0678477
0.067843
0.0678387
0.0678346
0.0678308
0.0678273
0.067824
0.0678208
0.0678179
0.0678152
0.0678126
0.0678102
0.0678079
0.0678057
0.0678037
0.0678018
0.0678
0.0677983
0.0677966
0.0677951
0.0677936
0.0677923
0.0677909
0.0677897
0.0677885
0.0677873
0.0677862
0.0677852
0.0677842
0.0677832
0.0677823
0.0677814
0.0677806
0.0677798
0.067779
0.0677783
0.0677775
0.0677769
0.0677762
0.0677756
0.067775
0.0677744
0.0677738
0.0677733
0.0677728
0.0677723
0.0677718
0.0677713
0.0677709
0.0677705
0.0677701
0.0677697
0.0677693
0.0677689
0.0677686
0.0677683
0.067768
0.0677677
0.0677674
0.0677671
0.0677669
0.0677666
0.0677664
0.0677662
0.067766
0.0677658
0.0677656
0.0677654
0.0677652
0.0677651
0.0677649
0.0677648
0.0677647
0.0677645
0.0692563
0.069217
0.0689821
0.0687487
0.0685702
0.068442
0.0683484
0.0682772
0.0682206
0.0681741
0.0681348
0.0681013
0.0680722
0.0680467
0.0680242
0.0680042
0.0679863
0.0679703
0.0679557
0.0679425
0.0679305
0.0679196
0.0679095
0.0679003
0.0678918
0.067884
0.0678767
0.06787
0.0678638
0.067858
0.0678527
0.0678477
0.067843
0.0678387
0.0678346
0.0678308
0.0678273
0.0678239
0.0678208
0.0678179
0.0678152
0.0678126
0.0678102
0.0678079
0.0678057
0.0678037
0.0678018
0.0678
0.0677983
0.0677966
0.0677951
0.0677936
0.0677922
0.0677909
0.0677897
0.0677885
0.0677873
0.0677862
0.0677852
0.0677842
0.0677832
0.0677823
0.0677814
0.0677806
0.0677798
0.067779
0.0677782
0.0677775
0.0677768
0.0677762
0.0677756
0.0677749
0.0677744
0.0677738
0.0677733
0.0677727
0.0677723
0.0677718
0.0677713
0.0677709
0.0677705
0.0677701
0.0677697
0.0677693
0.0677689
0.0677686
0.0677683
0.067768
0.0677677
0.0677674
0.0677671
0.0677669
0.0677666
0.0677664
0.0677662
0.067766
0.0677658
0.0677656
0.0677654
0.0677652
0.0677651
0.0677649
0.0677648
0.0677647
0.0677645
0.0692563
0.069217
0.0689821
0.0687487
0.0685702
0.068442
0.0683484
0.0682772
0.0682206
0.0681741
0.0681348
0.0681013
0.0680722
0.0680467
0.0680242
0.0680042
0.0679863
0.0679702
0.0679557
0.0679425
0.0679305
0.0679195
0.0679095
0.0679003
0.0678918
0.0678839
0.0678767
0.06787
0.0678638
0.067858
0.0678526
0.0678476
0.067843
0.0678386
0.0678346
0.0678308
0.0678272
0.0678239
0.0678208
0.0678179
0.0678151
0.0678126
0.0678101
0.0678078
0.0678057
0.0678037
0.0678018
0.0677999
0.0677982
0.0677966
0.0677951
0.0677936
0.0677922
0.0677909
0.0677896
0.0677884
0.0677873
0.0677862
0.0677852
0.0677842
0.0677832
0.0677823
0.0677814
0.0677806
0.0677798
0.067779
0.0677782
0.0677775
0.0677768
0.0677762
0.0677755
0.0677749
0.0677744
0.0677738
0.0677733
0.0677727
0.0677722
0.0677718
0.0677713
0.0677709
0.0677705
0.0677701
0.0677697
0.0677693
0.0677689
0.0677686
0.0677683
0.067768
0.0677677
0.0677674
0.0677671
0.0677669
0.0677666
0.0677664
0.0677662
0.067766
0.0677658
0.0677656
0.0677654
0.0677652
0.0677651
0.0677649
0.0677648
0.0677647
0.0677646
0.0692563
0.069217
0.0689821
0.0687487
0.0685702
0.068442
0.0683484
0.0682772
0.0682206
0.0681741
0.0681348
0.0681013
0.0680722
0.0680467
0.0680242
0.0680042
0.0679863
0.0679702
0.0679557
0.0679425
0.0679305
0.0679195
0.0679095
0.0679002
0.0678918
0.0678839
0.0678767
0.06787
0.0678637
0.067858
0.0678526
0.0678476
0.0678429
0.0678386
0.0678345
0.0678307
0.0678272
0.0678239
0.0678208
0.0678178
0.0678151
0.0678125
0.0678101
0.0678078
0.0678057
0.0678036
0.0678017
0.0677999
0.0677982
0.0677966
0.067795
0.0677936
0.0677922
0.0677909
0.0677896
0.0677884
0.0677873
0.0677862
0.0677851
0.0677841
0.0677832
0.0677823
0.0677814
0.0677805
0.0677797
0.067779
0.0677782
0.0677775
0.0677768
0.0677762
0.0677755
0.0677749
0.0677744
0.0677738
0.0677733
0.0677727
0.0677722
0.0677718
0.0677713
0.0677709
0.0677705
0.0677701
0.0677697
0.0677693
0.0677689
0.0677686
0.0677683
0.067768
0.0677677
0.0677674
0.0677671
0.0677669
0.0677666
0.0677664
0.0677662
0.067766
0.0677658
0.0677656
0.0677654
0.0677652
0.0677651
0.0677649
0.0677648
0.0677647
0.0677646
0.0692563
0.069217
0.0689821
0.0687487
0.0685702
0.068442
0.0683484
0.0682771
0.0682206
0.068174
0.0681348
0.0681013
0.0680722
0.0680467
0.0680242
0.0680042
0.0679863
0.0679702
0.0679557
0.0679425
0.0679305
0.0679195
0.0679094
0.0679002
0.0678917
0.0678839
0.0678766
0.0678699
0.0678637
0.0678579
0.0678526
0.0678476
0.0678429
0.0678386
0.0678345
0.0678307
0.0678272
0.0678238
0.0678207
0.0678178
0.0678151
0.0678125
0.0678101
0.0678078
0.0678056
0.0678036
0.0678017
0.0677999
0.0677982
0.0677966
0.067795
0.0677936
0.0677922
0.0677908
0.0677896
0.0677884
0.0677872
0.0677862
0.0677851
0.0677841
0.0677832
0.0677822
0.0677814
0.0677805
0.0677797
0.067779
0.0677782
0.0677775
0.0677768
0.0677762
0.0677755
0.0677749
0.0677743
0.0677738
0.0677732
0.0677727
0.0677722
0.0677718
0.0677713
0.0677709
0.0677705
0.0677701
0.0677697
0.0677693
0.0677689
0.0677686
0.0677683
0.067768
0.0677677
0.0677674
0.0677671
0.0677669
0.0677666
0.0677664
0.0677662
0.067766
0.0677658
0.0677656
0.0677654
0.0677652
0.0677651
0.0677649
0.0677648
0.0677647
0.0677646
0.0692563
0.069217
0.0689821
0.0687487
0.0685701
0.0684419
0.0683483
0.0682771
0.0682206
0.068174
0.0681348
0.0681012
0.0680722
0.0680467
0.0680242
0.0680041
0.0679863
0.0679702
0.0679556
0.0679424
0.0679304
0.0679195
0.0679094
0.0679002
0.0678917
0.0678839
0.0678766
0.0678699
0.0678637
0.0678579
0.0678525
0.0678475
0.0678429
0.0678385
0.0678345
0.0678307
0.0678271
0.0678238
0.0678207
0.0678178
0.067815
0.0678125
0.06781
0.0678078
0.0678056
0.0678036
0.0678017
0.0677999
0.0677981
0.0677965
0.067795
0.0677935
0.0677921
0.0677908
0.0677896
0.0677884
0.0677872
0.0677861
0.0677851
0.0677841
0.0677831
0.0677822
0.0677814
0.0677805
0.0677797
0.0677789
0.0677782
0.0677775
0.0677768
0.0677762
0.0677755
0.0677749
0.0677743
0.0677738
0.0677732
0.0677727
0.0677722
0.0677718
0.0677713
0.0677709
0.0677705
0.0677701
0.0677697
0.0677693
0.0677689
0.0677686
0.0677683
0.067768
0.0677677
0.0677674
0.0677671
0.0677669
0.0677666
0.0677664
0.0677662
0.067766
0.0677658
0.0677656
0.0677654
0.0677652
0.0677651
0.0677649
0.0677648
0.0677647
0.0677646
0.0692563
0.069217
0.0689821
0.0687487
0.0685701
0.0684419
0.0683483
0.0682771
0.0682206
0.068174
0.0681348
0.0681012
0.0680721
0.0680466
0.0680241
0.0680041
0.0679862
0.0679701
0.0679556
0.0679424
0.0679304
0.0679194
0.0679094
0.0679001
0.0678916
0.0678838
0.0678766
0.0678699
0.0678636
0.0678579
0.0678525
0.0678475
0.0678428
0.0678385
0.0678344
0.0678306
0.0678271
0.0678238
0.0678206
0.0678177
0.067815
0.0678124
0.06781
0.0678077
0.0678056
0.0678035
0.0678016
0.0677998
0.0677981
0.0677965
0.067795
0.0677935
0.0677921
0.0677908
0.0677895
0.0677883
0.0677872
0.0677861
0.0677851
0.0677841
0.0677831
0.0677822
0.0677813
0.0677805
0.0677797
0.0677789
0.0677782
0.0677775
0.0677768
0.0677761
0.0677755
0.0677749
0.0677743
0.0677738
0.0677732
0.0677727
0.0677722
0.0677718
0.0677713
0.0677709
0.0677705
0.0677701
0.0677697
0.0677693
0.067769
0.0677686
0.0677683
0.067768
0.0677677
0.0677674
0.0677671
0.0677669
0.0677666
0.0677664
0.0677662
0.067766
0.0677658
0.0677656
0.0677654
0.0677652
0.0677651
0.067765
0.0677648
0.0677647
0.0677646
0.0692563
0.069217
0.0689821
0.0687487
0.0685701
0.0684419
0.0683483
0.0682771
0.0682205
0.068174
0.0681348
0.0681012
0.0680721
0.0680466
0.0680241
0.0680041
0.0679862
0.0679701
0.0679556
0.0679424
0.0679303
0.0679194
0.0679093
0.0679001
0.0678916
0.0678838
0.0678765
0.0678698
0.0678636
0.0678578
0.0678524
0.0678474
0.0678428
0.0678384
0.0678344
0.0678306
0.067827
0.0678237
0.0678206
0.0678177
0.0678149
0.0678124
0.06781
0.0678077
0.0678055
0.0678035
0.0678016
0.0677998
0.0677981
0.0677965
0.0677949
0.0677935
0.0677921
0.0677908
0.0677895
0.0677883
0.0677872
0.0677861
0.0677851
0.0677841
0.0677831
0.0677822
0.0677813
0.0677805
0.0677797
0.0677789
0.0677782
0.0677775
0.0677768
0.0677761
0.0677755
0.0677749
0.0677743
0.0677738
0.0677732
0.0677727
0.0677722
0.0677718
0.0677713
0.0677709
0.0677705
0.0677701
0.0677697
0.0677693
0.067769
0.0677686
0.0677683
0.067768
0.0677677
0.0677674
0.0677671
0.0677669
0.0677666
0.0677664
0.0677662
0.067766
0.0677658
0.0677656
0.0677654
0.0677653
0.0677651
0.067765
0.0677648
0.0677647
0.0677646
0.0692563
0.069217
0.0689821
0.0687487
0.0685701
0.0684419
0.0683483
0.0682771
0.0682205
0.068174
0.0681347
0.0681012
0.0680721
0.0680466
0.0680241
0.068004
0.0679861
0.0679701
0.0679555
0.0679423
0.0679303
0.0679193
0.0679093
0.0679
0.0678915
0.0678837
0.0678765
0.0678698
0.0678635
0.0678577
0.0678524
0.0678474
0.0678427
0.0678384
0.0678343
0.0678305
0.067827
0.0678237
0.0678206
0.0678176
0.0678149
0.0678123
0.0678099
0.0678076
0.0678055
0.0678035
0.0678016
0.0677998
0.067798
0.0677964
0.0677949
0.0677934
0.0677921
0.0677907
0.0677895
0.0677883
0.0677872
0.0677861
0.067785
0.067784
0.0677831
0.0677822
0.0677813
0.0677805
0.0677797
0.0677789
0.0677782
0.0677775
0.0677768
0.0677761
0.0677755
0.0677749
0.0677743
0.0677738
0.0677732
0.0677727
0.0677722
0.0677718
0.0677713
0.0677709
0.0677705
0.0677701
0.0677697
0.0677693
0.067769
0.0677686
0.0677683
0.067768
0.0677677
0.0677674
0.0677672
0.0677669
0.0677667
0.0677664
0.0677662
0.067766
0.0677658
0.0677656
0.0677654
0.0677653
0.0677651
0.067765
0.0677648
0.0677647
0.0677646
0.0692563
0.069217
0.068982
0.0687487
0.0685701
0.0684419
0.0683483
0.0682771
0.0682205
0.0681739
0.0681347
0.0681011
0.068072
0.0680465
0.068024
0.068004
0.0679861
0.06797
0.0679555
0.0679423
0.0679302
0.0679193
0.0679092
0.0679
0.0678915
0.0678836
0.0678764
0.0678697
0.0678635
0.0678577
0.0678523
0.0678473
0.0678427
0.0678383
0.0678343
0.0678305
0.0678269
0.0678236
0.0678205
0.0678176
0.0678149
0.0678123
0.0678099
0.0678076
0.0678055
0.0678034
0.0678015
0.0677997
0.067798
0.0677964
0.0677949
0.0677934
0.067792
0.0677907
0.0677895
0.0677883
0.0677871
0.0677861
0.067785
0.067784
0.0677831
0.0677822
0.0677813
0.0677805
0.0677797
0.0677789
0.0677782
0.0677775
0.0677768
0.0677761
0.0677755
0.0677749
0.0677743
0.0677738
0.0677733
0.0677727
0.0677723
0.0677718
0.0677713
0.0677709
0.0677705
0.0677701
0.0677697
0.0677693
0.067769
0.0677686
0.0677683
0.067768
0.0677677
0.0677674
0.0677672
0.0677669
0.0677667
0.0677665
0.0677662
0.067766
0.0677658
0.0677656
0.0677655
0.0677653
0.0677651
0.067765
0.0677649
0.0677648
0.0677646
0.0692563
0.069217
0.068982
0.0687487
0.0685701
0.0684419
0.0683483
0.068277
0.0682204
0.0681739
0.0681346
0.0681011
0.068072
0.0680465
0.068024
0.0680039
0.067986
0.0679699
0.0679554
0.0679422
0.0679302
0.0679192
0.0679091
0.0678999
0.0678914
0.0678836
0.0678763
0.0678696
0.0678634
0.0678576
0.0678523
0.0678473
0.0678426
0.0678383
0.0678342
0.0678304
0.0678269
0.0678236
0.0678205
0.0678175
0.0678148
0.0678122
0.0678098
0.0678076
0.0678054
0.0678034
0.0678015
0.0677997
0.067798
0.0677964
0.0677948
0.0677934
0.067792
0.0677907
0.0677895
0.0677883
0.0677871
0.0677861
0.067785
0.067784
0.0677831
0.0677822
0.0677813
0.0677805
0.0677797
0.0677789
0.0677782
0.0677775
0.0677768
0.0677762
0.0677755
0.0677749
0.0677744
0.0677738
0.0677733
0.0677728
0.0677723
0.0677718
0.0677714
0.0677709
0.0677705
0.0677701
0.0677697
0.0677694
0.067769
0.0677687
0.0677684
0.0677681
0.0677678
0.0677675
0.0677672
0.067767
0.0677667
0.0677665
0.0677663
0.0677661
0.0677659
0.0677657
0.0677655
0.0677653
0.0677652
0.067765
0.0677649
0.0677648
0.0677647
0.0692563
0.069217
0.068982
0.0687486
0.0685701
0.0684418
0.0683482
0.068277
0.0682204
0.0681738
0.0681346
0.068101
0.0680719
0.0680464
0.0680239
0.0680039
0.067986
0.0679699
0.0679553
0.0679421
0.0679301
0.0679191
0.0679091
0.0678998
0.0678914
0.0678835
0.0678763
0.0678696
0.0678633
0.0678576
0.0678522
0.0678472
0.0678426
0.0678382
0.0678342
0.0678304
0.0678268
0.0678235
0.0678204
0.0678175
0.0678148
0.0678122
0.0678098
0.0678075
0.0678054
0.0678034
0.0678015
0.0677997
0.067798
0.0677964
0.0677949
0.0677934
0.067792
0.0677907
0.0677895
0.0677883
0.0677872
0.0677861
0.0677851
0.0677841
0.0677831
0.0677822
0.0677814
0.0677805
0.0677797
0.067779
0.0677782
0.0677775
0.0677769
0.0677762
0.0677756
0.067775
0.0677744
0.0677739
0.0677733
0.0677728
0.0677724
0.0677719
0.0677714
0.067771
0.0677706
0.0677702
0.0677698
0.0677695
0.0677691
0.0677688
0.0677685
0.0677681
0.0677679
0.0677676
0.0677673
0.0677671
0.0677668
0.0677666
0.0677664
0.0677662
0.067766
0.0677658
0.0677656
0.0677654
0.0677653
0.0677651
0.067765
0.0677649
0.0677648
0.0692563
0.069217
0.068982
0.0687486
0.06857
0.0684418
0.0683482
0.0682769
0.0682204
0.0681738
0.0681345
0.068101
0.0680719
0.0680464
0.0680238
0.0680038
0.0679859
0.0679698
0.0679552
0.067942
0.06793
0.067919
0.067909
0.0678998
0.0678913
0.0678834
0.0678762
0.0678695
0.0678633
0.0678575
0.0678521
0.0678471
0.0678425
0.0678382
0.0678341
0.0678303
0.0678268
0.0678235
0.0678204
0.0678175
0.0678148
0.0678122
0.0678098
0.0678076
0.0678054
0.0678034
0.0678015
0.0677998
0.0677981
0.0677965
0.0677949
0.0677935
0.0677921
0.0677908
0.0677896
0.0677884
0.0677873
0.0677862
0.0677852
0.0677842
0.0677833
0.0677824
0.0677815
0.0677807
0.0677799
0.0677791
0.0677784
0.0677777
0.067777
0.0677764
0.0677758
0.0677752
0.0677746
0.0677741
0.0677735
0.067773
0.0677726
0.0677721
0.0677716
0.0677712
0.0677708
0.0677704
0.06777
0.0677697
0.0677693
0.067769
0.0677687
0.0677684
0.0677681
0.0677678
0.0677675
0.0677673
0.067767
0.0677668
0.0677666
0.0677664
0.0677662
0.067766
0.0677658
0.0677657
0.0677655
0.0677654
0.0677652
0.0677651
0.067765
0.0692563
0.069217
0.068982
0.0687486
0.06857
0.0684418
0.0683481
0.0682769
0.0682203
0.0681737
0.0681345
0.0681009
0.0680718
0.0680463
0.0680238
0.0680037
0.0679858
0.0679697
0.0679552
0.067942
0.06793
0.067919
0.067909
0.0678997
0.0678913
0.0678834
0.0678762
0.0678695
0.0678633
0.0678576
0.0678522
0.0678472
0.0678426
0.0678383
0.0678343
0.0678305
0.067827
0.0678237
0.0678206
0.0678177
0.067815
0.0678125
0.0678101
0.0678078
0.0678057
0.0678037
0.0678019
0.0678001
0.0677984
0.0677968
0.0677953
0.0677939
0.0677925
0.0677912
0.06779
0.0677888
0.0677877
0.0677867
0.0677857
0.0677847
0.0677838
0.0677829
0.067782
0.0677812
0.0677804
0.0677797
0.0677789
0.0677783
0.0677776
0.067777
0.0677763
0.0677758
0.0677752
0.0677746
0.0677741
0.0677736
0.0677732
0.0677727
0.0677722
0.0677718
0.0677714
0.067771
0.0677707
0.0677703
0.06777
0.0677696
0.0677693
0.067769
0.0677687
0.0677684
0.0677682
0.0677679
0.0677677
0.0677675
0.0677673
0.0677671
0.0677669
0.0677667
0.0677665
0.0677663
0.0677662
0.0677661
0.0677659
0.0677658
0.0677657
0.0692564
0.069217
0.068982
0.0687486
0.06857
0.0684417
0.0683481
0.0682768
0.0682202
0.0681737
0.0681344
0.0681008
0.0680717
0.0680462
0.0680237
0.0680037
0.0679858
0.0679697
0.0679551
0.067942
0.06793
0.067919
0.067909
0.0678998
0.0678914
0.0678836
0.0678764
0.0678697
0.0678636
0.0678579
0.0678526
0.0678476
0.0678431
0.0678388
0.0678348
0.0678311
0.0678276
0.0678244
0.0678214
0.0678185
0.0678159
0.0678134
0.067811
0.0678088
0.0678068
0.0678048
0.067803
0.0678013
0.0677996
0.0677981
0.0677966
0.0677952
0.0677939
0.0677926
0.0677914
0.0677903
0.0677892
0.0677882
0.0677872
0.0677862
0.0677853
0.0677845
0.0677836
0.0677829
0.0677821
0.0677814
0.0677807
0.06778
0.0677793
0.0677787
0.0677781
0.0677776
0.067777
0.0677765
0.067776
0.0677755
0.067775
0.0677746
0.0677742
0.0677737
0.0677733
0.067773
0.0677726
0.0677723
0.0677719
0.0677716
0.0677713
0.067771
0.0677707
0.0677705
0.0677702
0.06777
0.0677698
0.0677695
0.0677693
0.0677691
0.0677689
0.0677688
0.0677686
0.0677684
0.0677683
0.0677682
0.067768
0.0677679
0.0677678
0.0692563
0.069217
0.068982
0.0687486
0.06857
0.0684418
0.0683482
0.0682769
0.0682203
0.0681738
0.0681345
0.068101
0.0680719
0.0680465
0.0680241
0.0680041
0.0679863
0.0679704
0.0679559
0.0679429
0.067931
0.0679202
0.0679104
0.0679013
0.067893
0.0678854
0.0678784
0.0678719
0.0678659
0.0678603
0.0678552
0.0678504
0.067846
0.0678419
0.0678381
0.0678345
0.0678312
0.0678281
0.0678252
0.0678225
0.06782
0.0678176
0.0678154
0.0678133
0.0678114
0.0678095
0.0678078
0.0678062
0.0678046
0.0678032
0.0678018
0.0678005
0.0677992
0.0677981
0.067797
0.0677959
0.0677949
0.0677939
0.067793
0.0677921
0.0677913
0.0677905
0.0677897
0.067789
0.0677883
0.0677876
0.067787
0.0677863
0.0677858
0.0677852
0.0677846
0.0677841
0.0677836
0.0677831
0.0677827
0.0677822
0.0677818
0.0677814
0.067781
0.0677806
0.0677803
0.0677799
0.0677796
0.0677793
0.067779
0.0677787
0.0677784
0.0677782
0.0677779
0.0677777
0.0677775
0.0677772
0.067777
0.0677768
0.0677767
0.0677765
0.0677763
0.0677762
0.067776
0.0677759
0.0677758
0.0677757
0.0677755
0.0677755
0.0677754
0.0692564
0.069217
0.0689821
0.0687489
0.0685705
0.0684426
0.0683493
0.0682784
0.0682223