# Probe 0 (-148.88 18.28 2)
# Probe 1 (-7.31 59.55 2)
# Probe 2 (7.31 59.55 2)
# Probe 3 (103.22 12.67 2)
# Probe 4 (272.95 33.51 2)
# Probe 5 (595.53 73.12 2)
#       Probe             0             1             2             3             4             5
#        Time
            1             (5.91454 7.21009e-05 -0.179374)             (5.71104 0.00240653 0.00149052)             (5.70613 0.00211042 0.00110904)             (5.69093 3.59861e-06 0.000109804)             (5.69017 -7.97453e-06 6.22788e-05)             (5.69017 2.52758e-06 5.73535e-05)
            2             (5.82949 3.46344e-05 -0.127199)             (5.71781 0.00298655 0.00188411)             (5.71142 0.00284309 0.00141931)             (5.69101 -1.71671e-05 5.0023e-05)             (5.69017 8.55281e-06 -2.46582e-06)             (5.69016 9.37221e-06 -5.6308e-06)
            3             (5.77702 -8.15808e-06 -0.0848711)             (5.72719 0.00924923 0.00277858)             (5.71928 0.00559701 0.00209416)             (5.69143 8.61782e-05 0.000125194)             (5.68997 1.79713e-05 -1.90062e-06)             (5.68995 1.29319e-05 -3.72923e-06)
            4             (5.7482 1.29948e-05 -0.0541753)             (5.73904 0.018789 0.00471721)             (5.73075 0.0102398 0.00340332)             (5.69081 0.00010904 0.000260317)             (5.68941 2.77119e-05 -1.97756e-06)             (5.68939 1.72119e-05 -2.9672e-06)
            5             (5.73253 2.60304e-05 -0.0332119)             (5.75105 0.0197483 0.00590481)             (5.74305 0.0113583 0.00628533)             (5.68918 0.000394162 0.00055259)             (5.6884 3.61296e-05 -1.34182e-06)             (5.68838 2.11815e-05 -1.79204e-06)
            6             (5.72402 4.93494e-05 -0.0200172)             (5.76341 0.0176037 0.00635675)             (5.75206 0.0102185 0.00554398)             (5.68864 0.00152538 0.00124007)             (5.68689 4.49649e-05 -1.29752e-07)             (5.68687 2.50922e-05 -6.4292e-07)
            7             (5.71935 6.09279e-05 -0.0125916)             (5.77793 0.018766 0.00705792)             (5.7614 0.00822705 0.00361442)             (5.68874 0.00413688 0.00240171)             (5.68487 5.46847e-05 1.16034e-06)             (5.68484 2.91746e-05 4.44789e-07)
            8             (5.71644 6.47364e-05 -0.00880541)             (5.79419 0.0189802 0.00814119)             (5.77275 0.0129631 0.00580155)             (5.69013 0.00924301 0.00409595)             (5.68236 6.52841e-05 2.43866e-06)             (5.68232 3.33004e-05 1.36097e-06)
            9             (5.71474 6.25695e-05 -0.00706942)             (5.81495 0.0182951 0.00921592)             (5.78696 0.0168373 0.00707728)             (5.69291 0.0180313 0.00618908)             (5.67938 7.58966e-05 3.59103e-06)             (5.67934 3.74109e-05 2.10915e-06)
           10             (5.71396 5.89356e-05 -0.00634882)             (5.83991 0.017513 0.0102494)             (5.80454 0.0195113 0.00836627)             (5.69734 0.0319096 0.00845502)             (5.676 8.63243e-05 4.98496e-06)             (5.67595 4.14979e-05 2.71449e-06)
           11             (5.71361 5.35746e-05 -0.00609114)             (5.86876 0.0167297 0.0111684)             (5.82587 0.0210808 0.00962781)             (5.70359 0.0525538 0.0104035)             (5.67225 9.73493e-05 6.4815e-06)             (5.67219 4.55365e-05 3.29043e-06)
           12             (5.71343 4.77455e-05 -0.00597837)             (5.90095 0.0160228 0.0118854)             (5.85112 0.0217757 0.0107904)             (5.71144 0.0814722 0.0116317)             (5.66818 0.000109135 8.03735e-06)             (5.66809 4.94607e-05 3.86569e-06)
           13             (5.71336 4.19047e-05 -0.00589448)             (5.9355 0.0154479 0.0123784)             (5.88 0.0219009 0.0117638)             (5.72013 0.119949 0.0116364)             (5.66382 0.000121805 9.66595e-06)             (5.66371 5.33441e-05 4.403e-06)
           14             (5.71307 3.62526e-05 -0.00580004)             (5.97119 0.0150362 0.0125441)             (5.91186 0.0217051 0.0124751)             (5.72831 0.168791 0.00979563)             (5.6592 0.000135502 1.14239e-05)             (5.65906 5.72174e-05 4.90041e-06)
           15             (5.71257 3.00292e-05 -0.00568554)             (6.0064 0.0147489 0.0123597)             (5.94564 0.0213542 0.0128838)             (5.73427 0.228266 0.00551494)             (5.65437 0.000150451 1.3403e-05)             (5.6542 6.11167e-05 5.34284e-06)
           16             (5.71199 2.2492e-05 -0.00556699)             (6.03962 0.0145537 0.011634)             (5.97998 0.0209748 0.0129189)             (5.73605 0.297971 -0.00112584)             (5.64935 0.000167035 1.57355e-05)             (5.64913 6.50556e-05 5.73319e-06)
           17             (5.71148 1.30016e-05 -0.00547227)             (6.0698 0.014407 0.0101311)             (6.01332 0.0206156 0.0125827)             (5.73174 0.376606 -0.00998399)             (5.64417 0.000185928 1.86173e-05)             (5.6439 6.90346e-05 6.08165e-06)
           18             (5.71105 1.58292e-06 -0.00541009)             (6.09465 0.0143466 0.00809225)             (6.04405 0.020315 0.0116794)             (5.7197 0.461893 -0.0207996)             (5.63886 0.000208269 2.23263e-05)             (5.63852 7.30203e-05 6.383e-06)
           19             (5.71068 -1.12986e-05 -0.00537133)             (6.10997 0.0146987 0.00595313)             (6.07137 0.0199795 0.0101204)             (5.69933 0.550909 -0.0329708)             (5.63345 0.000235924 2.72617e-05)             (5.63303 7.70072e-05 6.66309e-06)
           20             (5.71032 -2.34116e-05 -0.00534882)             (6.11628 0.0154446 0.00414556)             (6.09251 0.0197763 0.0081664)             (5.67115 0.640365 -0.045564)             (5.62796 0.000271929 3.40405e-05)             (5.62743 8.10434e-05 6.94256e-06)
           21             (5.70999 -3.31902e-05 -0.00533677)             (6.11613 0.0165448 0.00289954)             (6.10397 0.0199442 0.00623108)             (5.63685 0.726898 -0.0578711)             (5.62241 0.000321067 4.35847e-05)             (5.62175 8.51563e-05 7.14119e-06)
           22             (5.70968 -3.91022e-05 -0.00532932)             (6.11248 0.017447 0.00159951)             (6.1079 0.0203064 0.00463287)             (5.5993 0.807596 -0.0694374)             (5.61683 0.000390718 5.72491e-05)             (5.616 8.92736e-05 7.51709e-06)
           23             (5.70941 -4.01125e-05 -0.00532205)             (6.10547 0.0173521 0.000157287)             (6.10641 0.0209938 0.0035176)             (5.56291 0.88074 -0.0798907)             (5.61123 0.000491996 7.70064e-05)             (5.6102 9.33353e-05 7.94121e-06)
           24             (5.70917 -3.56467e-05 -0.00531238)             (6.09426 0.017024 -0.00110601)             (6.10231 0.0213906 0.00227808)             (5.53234 0.944781 -0.0898459)             (5.60564 0.000641188 0.000105663)             (5.60436 9.75268e-05 8.31824e-06)
           25             (5.70896 -2.57033e-05 -0.00529889)             (6.07937 0.0166129 -0.00230903)             (6.09537 0.021244 0.000958644)             (5.50533 0.997744 -0.098317)             (5.60009 0.000862931 0.0001477)             (5.59849 0.000101574 8.2882e-06)
           26             (5.70878 -1.05455e-05 -0.00528222)             (6.06184 0.0162458 -0.00336929)             (6.08492 0.0208427 -0.00017156)             (5.48222 1.03984 -0.105159)             (5.59459 0.00119234 0.000209434)             (5.59259 0.000105883 7.82634e-06)
           27             (5.70863 9.07403e-06 -0.00526417)             (6.04286 0.0159868 -0.00421536)             (6.07146 0.0204009 -0.00123433)             (5.46284 1.07204 -0.110213)             (5.58917 0.00168033 0.000299835)             (5.58669 0.000109935 7.63406e-06)
           28             (5.7085 3.13398e-05 -0.00524663)             (6.02351 0.0158407 -0.00485617)             (6.05583 0.0200427 -0.00220239)             (5.44675 1.09515 -0.113628)             (5.58387 0.00239928 0.000431853)             (5.58079 0.000114023 7.51322e-06)
           29             (5.70839 5.40347e-05 -0.00523106)             (6.00469 0.015775 -0.00529822)             (6.03902 0.0197768 -0.00298548)             (5.43363 1.11025 -0.115509)             (5.5787 0.00344855 0.000622187)             (5.57489 0.000117897 7.69237e-06)
           30             (5.70829 7.50736e-05 -0.00521978)             (5.98705 0.0157518 -0.00556178)             (6.02192 0.0196123 -0.00355865)             (5.42367 1.11775 -0.115992)             (5.5737 0.00496603 0.000893569)             (5.569 0.000121992 7.81654e-06)
           31             (5.7082 9.26826e-05 -0.00521296)             (5.97096 0.015745 -0.00565914)             (6.0053 0.0195099 -0.00397258)             (5.41717 1.11839 -0.115345)             (5.56889 0.00713982 0.0012755)             (5.56314 0.000126241 7.90802e-06)
           32             (5.70811 0.00010557 -0.00520949)             (5.95662 0.0157343 -0.00561378)             (5.9897 0.0194291 -0.0042416)             (5.41452 1.11326 -0.113989)             (5.56431 0.0102248 0.00180512)             (5.55731 0.000130135 8.27392e-06)
           33             (5.70803 0.000112723 -0.0052085)             (5.94403 0.0157161 -0.00545457)             (5.97546 0.0193661 -0.00438487)             (5.41579 1.10352 -0.112344)             (5.56 0.014562 0.00252752)             (5.5515 0.000134308 8.25206e-06)
           34             (5.70796 0.000113714 -0.00520909)             (5.93314 0.0156824 -0.00521556)             (5.96274 0.0193093 -0.00440287)             (5.42047 1.09029 -0.110749)             (5.55598 0.0206031 0.00349504)             (5.54574 0.000138254 8.31089e-06)
           35             (5.70789 0.000108865 -0.00520987)             (5.9238 0.0156307 -0.00492998)             (5.95154 0.0192527 -0.00431525)             (5.42792 1.07434 -0.109398)             (5.55232 0.0289359 0.0047647)             (5.54002 0.000142206 8.31927e-06)
           36             (5.70781 9.89321e-05 -0.00521038)             (5.91588 0.0155637 -0.00462631)             (5.9418 0.0191932 -0.00414741)             (5.43791 1.05558 -0.108348)             (5.54907 0.0403058 0.00639207)             (5.53434 0.000145954 8.38517e-06)
           37             (5.70775 8.47832e-05 -0.0052104)             (5.90918 0.0154874 -0.00432719)             (5.93339 0.0191245 -0.00392632)             (5.45007 1.03406 -0.107478)             (5.54635 0.0556278 0.00842171)             (5.52871 0.000149868 8.46083e-06)
           38             (5.70768 6.78817e-05 -0.00520991)             (5.90352 0.015413 -0.00404941)             (5.92619 0.0190456 -0.00367671)             (5.46395 1.01011 -0.106685)             (5.54432 0.0759751 0.0108713)             (5.52312 0.000153611 8.98272e-06)
           39             (5.70762 4.93882e-05 -0.00520896)             (5.8987 0.015346 -0.00380326)             (5.92003 0.0189602 -0.00341857)             (5.47927 0.984186 -0.105964)             (5.54322 0.102526 0.013711)             (5.51759 0.000157357 9.37684e-06)
           40             (5.70756 3.12468e-05 -0.0052082)             (5.89456 0.0152899 -0.00359424)             (5.91476 0.018875 -0.00317084)             (5.49573 0.956945 -0.105353)             (5.54338 0.136393 0.0168326)             (5.51212 0.000160888 9.88184e-06)
           41             (5.70751 1.44359e-05 -0.00520755)             (5.89094 0.0152456 -0.00342096)             (5.91021 0.0187936 -0.00294468)             (5.51292 0.929196 -0.104914)             (5.54519 0.178425 0.0200336)             (5.50669 0.00016468 1.00033e-05)
           42             (5.70746 7.3554e-08 -0.00520747)             (5.88771 0.0152117 -0.00327961)             (5.90626 0.0187229 -0.00274709)             (5.53039 0.901739 -0.104645)             (5.54909 0.228929 0.0230044)             (5.50132 0.00016847 1.03599e-05)
           43             (5.70743 -1.14711e-05 -0.00520809)             (5.88478 0.0151875 -0.00316667)             (5.90275 0.0186655 -0.00257929)             (5.54765 0.875034 -0.104474)             (5.55558 0.287361 0.0253138)             (5.496 0.000172035 1.06624e-05)
           44             (5.70739 -2.02314e-05 -0.00520932)             (5.88206 0.0151719 -0.00307579)             (5.8996 0.0186197 -0.00244017)             (5.56443 0.849356 -0.104386)             (5.56504 0.352088 0.0264438)             (5.49073 0.000175791 1.09144e-05)
           45             (5.70736 -2.62647e-05 -0.00521104)             (5.87952 0.0151633 -0.00300098)             (5.8967 0.0185834 -0.002326)             (5.58046 0.824848 -0.104351)             (5.57783 0.42067 0.0259732)             (5.48551 0.000179045 1.11121e-05)
           46             (5.70734 -2.98931e-05 -0.00521336)             (5.87711 0.0151597 -0.00293651)             (5.89401 0.0185588 -0.00223645)             (5.59559 0.801559 -0.10432)             (5.59429 0.490292 0.0236394)             (5.48034 0.000182301 1.14356e-05)
           47             (5.70732 -3.17224e-05 -0.00521642)             (5.87481 0.015159 -0.00287929)             (5.89147 0.0185457 -0.00216367)             (5.60956 0.779602 -0.104262)             (5.61461 0.558121 0.0193852)             (5.47522 0.000185599 1.19642e-05)
           48             (5.70731 -3.24655e-05 -0.0052198)             (5.8726 0.0151597 -0.00282683)             (5.88905 0.0185433 -0.00210197)             (5.62221 0.758987 -0.104125)             (5.63881 0.621264 0.0133053)             (5.47015 0.000189053 1.20719e-05)
           49             (5.7073 -3.24293e-05 -0.0052232)             (5.87048 0.0151612 -0.00277687)             (5.88674 0.0185502 -0.00204846)             (5.6334 0.739825 -0.103951)             (5.66606 0.67696 0.00563255)             (5.46513 0.00019259 1.22613e-05)
           50             (5.70729 -3.18911e-05 -0.00522622)             (5.86843 0.015163 -0.00272798)             (5.88452 0.0185654 -0.00200108)             (5.64307 0.722183 -0.103754)             (5.69407 0.723144 -0.00316787)             (5.46014 0.000196234 1.23205e-05)
           51             (5.70729 -3.11255e-05 -0.00522877)             (5.86646 0.0151646 -0.00267941)             (5.88239 0.0185871 -0.00195816)             (5.65127 0.706085 -0.103536)             (5.72145 0.759548 -0.012656)             (5.45521 0.000199743 1.26242e-05)
           52             (5.7073 -3.01395e-05 -0.00523089)             (5.86456 0.0151668 -0.00263079)             (5.88034 0.0186136 -0.00191843)             (5.65813 0.691512 -0.103318)             (5.74691 0.786892 -0.0224406)             (5.45032 0.00020312 1.31422e-05)
           53             (5.7073 -2.88278e-05 -0.00523262)             (5.86273 0.0151698 -0.00258225)             (5.87837 0.0186442 -0.00187952)             (5.66382 0.678383 -0.103114)             (5.76947 0.806525 -0.0319658)             (5.44546 0.00020673 1.37831e-05)
           54             (5.70731 -2.72364e-05 -0.00523407)             (5.86097 0.015174 -0.00253382)             (5.87648 0.0186787 -0.00184093)             (5.66851 0.666597 -0.102927)             (5.78861 0.820206 -0.0406889)             (5.44065 0.00021071 1.43481e-05)
           55             (5.70731 -2.5304e-05 -0.00523524)             (5.85927 0.0151792 -0.00248557)             (5.87467 0.0187167 -0.00180289)             (5.67239 0.656021 -0.10276)             (5.80413 0.829777 -0.0481396)             (5.43588 0.000214892 1.51196e-05)
           56             (5.70732 -2.31847e-05 -0.00523622)             (5.85765 0.0151853 -0.00243768)             (5.87293 0.018758 -0.00176544)             (5.67561 0.646528 -0.102613)             (5.81604 0.836718 -0.054128)             (5.43115 0.00021961 1.59347e-05)
           57             (5.70733 -2.09475e-05 -0.00523703)             (5.85609 0.0151922 -0.00239023)             (5.87126 0.0188017 -0.00172872)             (5.67826 0.638002 -0.102487)             (5.82456 0.84194 -0.0586094)             (5.42645 0.000224755 1.6763e-05)
           58             (5.70734 -1.86414e-05 -0.00523776)             (5.8546 0.0151999 -0.00234334)             (5.86966 0.0188459 -0.00169291)             (5.68043 0.630334 -0.102381)             (5.83014 0.845855 -0.0616511)             (5.42179 0.000230633 1.77497e-05)
           59             (5.70735 -1.62616e-05 -0.0052384)             (5.85317 0.0152087 -0.0022971)             (5.86813 0.0188896 -0.00165795)             (5.68216 0.623422 -0.102291)             (5.83327 0.848534 -0.0634581)             (5.41717 0.000237331 1.88796e-05)
           60             (5.70736 -1.3892e-05 -0.00523919)             (5.85181 0.0152244 -0.00225204)             (5.86666 0.0189379 -0.00162495)             (5.6835 0.617192 -0.102222)             (5.83452 0.849828 -0.0642657)             (5.41259 0.000245083 2.01827e-05)
           61             (5.70737 -1.16938e-05 -0.00523995)             (5.85051 0.0152402 -0.00220772)             (5.86525 0.018981 -0.00159214)             (5.68449 0.611547 -0.102161)             (5.83449 0.849401 -0.064278)             (5.40804 0.000254164 2.16772e-05)
           62             (5.70737 -9.68989e-06 -0.0052407)             (5.84927 0.0152563 -0.00216464)             (5.8639 0.0190213 -0.0015593)             (5.68517 0.606418 -0.102106)             (5.83382 0.846919 -0.0636641)             (5.40353 0.000265024 2.3492e-05)
           63             (5.70738 -7.94443e-06 -0.00524142)             (5.84809 0.0152696 -0.00212258)             (5.86261 0.0190513 -0.00152544)             (5.68559 0.601737 -0.102048)             (5.83317 0.842132 -0.0625527)             (5.39906 0.000278061 2.56533e-05)
           64             (5.70739 -6.38367e-06 -0.00524244)             (5.84695 0.0152875 -0.00208229)             (5.86138 0.0190794 -0.00149224)             (5.68577 0.597457 -0.101989)             (5.8331 0.834959 -0.0610906)             (5.39462 0.000293761 2.82454e-05)
           65             (5.70739 -5.22383e-06 -0.00524361)             (5.84587 0.0153093 -0.00204392)             (5.86019 0.0191054 -0.00145972)             (5.68576 0.593528 -0.101931)             (5.83409 0.825474 -0.0594295)             (5.39022 0.000312734 3.13304e-05)
           66             (5.7074 -4.48086e-06 -0.00524485)             (5.84484 0.0153338 -0.00200742)             (5.85907 0.019129 -0.00142795)             (5.68558 0.589903 -0.10188)             (5.83652 0.813924 -0.0576473)             (5.38586 0.000335788 3.50096e-05)
           67             (5.7074 -4.18628e-06 -0.00524625)             (5.84386 0.0153652 -0.00197311)             (5.85799 0.0191565 -0.00139825)             (5.68526 0.586554 -0.101843)             (5.84061 0.800677 -0.0558057)             (5.38154 0.000363965 3.94326e-05)
           68             (5.7074 -4.1378e-06 -0.00524768)             (5.84292 0.0153894 -0.00193993)             (5.85697 0.0191772 -0.00136752)             (5.68484 0.583442 -0.101808)             (5.84636 0.786129 -0.0539641)             (5.37726 0.000398454 4.47421e-05)
           69             (5.7074 -4.30285e-06 -0.00524935)             (5.84202 0.0154144 -0.00190854)             (5.85599 0.0191988 -0.00133749)             (5.68434 0.580564 -0.101774)             (5.85366 0.770619 -0.0522093)             (5.37303 0.000440797 5.11631e-05)
           70             (5.70741 -4.66632e-06 -0.0052513)             (5.84116 0.0154443 -0.00187931)             (5.85505 0.0192259 -0.0013096)             (5.6838 0.577913 -0.101743)             (5.8623 0.754447 -0.0505876)             (5.36884 0.000492955 5.89872e-05)
           71             (5.70741 -5.14069e-06 -0.0052532)             (5.84033 0.0154695 -0.00185036)             (5.85416 0.0192448 -0.00128165)             (5.68322 0.575458 -0.101706)             (5.87199 0.737914 -0.0491308)             (5.3647 0.000557161 6.85034e-05)
           72             (5.70741 -5.80405e-06 -0.00525511)             (5.83955 0.0154952 -0.0018226)             (5.85331 0.0192621 -0.00125505)             (5.68262 0.573194 -0.101669)             (5.88242 0.721352 -0.0478579)             (5.36062 0.000636369 8.0137e-05)
           73             (5.70742 -6.63596e-06 -0.00525727)             (5.8388 0.0155268 -0.00179636)             (5.8525 0.0192862 -0.00123086)             (5.68201 0.571106 -0.101635)             (5.89328 0.705083 -0.0467834)             (5.35659 0.000734282 9.44194e-05)
           74             (5.70742 -7.50961e-06 -0.00525914)             (5.83808 0.0155478 -0.00177095)             (5.85172 0.019305 -0.00120551)             (5.68139 0.569155 -0.1016)             (5.90425 0.689416 -0.0459015)             (5.35263 0.000855149 0.000111913)
           75             (5.70743 -8.26641e-06 -0.00526102)             (5.83739 0.0155674 -0.00174701)             (5.85098 0.0193263 -0.00118079)             (5.68078 0.567328 -0.101568)             (5.91505 0.674592 -0.045215)             (5.34874 0.00100467 0.000133444)
           76             (5.70743 -8.86053e-06 -0.00526291)             (5.83673 0.0155889 -0.00172519)             (5.85027 0.0193511 -0.00115835)             (5.68016 0.565613 -0.101543)             (5.92543 0.660796 -0.0447066)             (5.34493 0.0011901 0.000160066)
           77             (5.70744 -9.25455e-06 -0.00526448)             (5.8361 0.0156087 -0.00170293)             (5.84959 0.0193692 -0.00113582)             (5.67953 0.563977 -0.101518)             (5.93523 0.648147 -0.0443637)             (5.34121 0.00141988 0.00019292)
           78             (5.70744 -9.48602e-06 -0.00526607)             (5.8355 0.0156334 -0.00168219)             (5.84893 0.01939 -0.00111573)             (5.67889 0.562433 -0.1015)             (5.94429 0.636688 -0.0441717)             (5.33759 0.00170579 0.000233727)
           79             (5.70745 -9.6482e-06 -0.00526729)             (5.83493 0.0156502 -0.00166185)             (5.84831 0.0194027 -0.0010946)             (5.67824 0.560953 -0.101481)             (5.95254 0.626424 -0.0441042)             (5.33407 0.0020616 0.000284338)
