/*--------------------------------*- C++ -*----------------------------------*\
| =========                 |                                                 |
| \\      /  F ield         | OpenFOAM: The Open Source CFD Toolbox           |
|  \\    /   O peration     | Version:  5.x                                   |
|   \\  /    A nd           | Web:      www.OpenFOAM.org                      |
|    \\/     M anipulation  |                                                 |
\*---------------------------------------------------------------------------*/
FoamFile
{
    version     2.0;
    format      ascii;
    class       volScalarField;
    location    "0";
    object      alphat;
}
// * * * * * * * * * * * * * * * * * * * * * * * * * * * * * * * * * * * * * //

dimensions      [1 -1 -1 0 0 0 0];

internalField   nonuniform List<scalar> 
87000
(
0.0311547
0.031318
0.0314005
0.0314308
0.031434
0.031426
0.0314151
0.0314049
0.0313966
0.0313904
0.031386
0.0313829
0.0313808
0.0313794
0.0313785
0.031378
0.0313778
0.0313777
0.0313777
0.0313779
0.031378
0.0313782
0.0313784
0.0313786
0.0313787
0.0313788
0.0313787
0.0313785
0.0313782
0.0313778
0.0313771
0.0313762
0.0313752
0.0313738
0.0313722
0.0313703
0.0313681
0.0313656
0.0313628
0.0313596
0.0313561
0.0313523
0.0313481
0.0313435
0.0313386
0.0313333
0.0313276
0.0313216
0.0313152
0.0313085
0.0313015
0.0312941
0.0312863
0.0312783
0.0312699
0.0312612
0.0312523
0.031243
0.0312335
0.0312237
0.0312136
0.0312033
0.0311927
0.0311819
0.0311709
0.0311597
0.0311483
0.0311367
0.0311248
0.0311128
0.0311007
0.0310884
0.0310759
0.0310633
0.0310505
0.0310376
0.0310246
0.0310115
0.0309982
0.0309849
0.0309714
0.0309579
0.0309443
0.0309306
0.0309168
0.030903
0.0308891
0.0308752
0.0308612
0.0308472
0.0308332
0.0308192
0.0308053
0.0307914
0.0307777
0.0307639
0.0307508
0.0307373
0.0307255
0.0307118
0.0311547
0.031318
0.0314005
0.0314308
0.031434
0.031426
0.0314151
0.0314049
0.0313966
0.0313904
0.031386
0.0313829
0.0313808
0.0313794
0.0313785
0.031378
0.0313778
0.0313777
0.0313777
0.0313779
0.031378
0.0313782
0.0313784
0.0313786
0.0313787
0.0313788
0.0313787
0.0313785
0.0313782
0.0313778
0.0313771
0.0313763
0.0313752
0.0313738
0.0313722
0.0313703
0.0313681
0.0313656
0.0313628
0.0313596
0.0313561
0.0313523
0.0313481
0.0313435
0.0313386
0.0313333
0.0313276
0.0313216
0.0313152
0.0313085
0.0313015
0.0312941
0.0312863
0.0312783
0.0312699
0.0312613
0.0312523
0.031243
0.0312335
0.0312237
0.0312136
0.0312033
0.0311927
0.031182
0.0311709
0.0311597
0.0311483
0.0311367
0.0311248
0.0311129
0.0311007
0.0310884
0.0310759
0.0310633
0.0310505
0.0310376
0.0310246
0.0310115
0.0309982
0.0309849
0.0309714
0.0309579
0.0309443
0.0309306
0.0309168
0.030903
0.0308891
0.0308752
0.0308612
0.0308472
0.0308332
0.0308192
0.0308053
0.0307914
0.0307777
0.030764
0.0307509
0.0307373
0.0307255
0.0307118
0.0311547
0.031318
0.0314005
0.0314308
0.031434
0.031426
0.0314151
0.0314049
0.0313966
0.0313904
0.031386
0.0313829
0.0313808
0.0313794
0.0313785
0.031378
0.0313778
0.0313777
0.0313777
0.0313779
0.031378
0.0313782
0.0313784
0.0313786
0.0313787
0.0313788
0.0313787
0.0313786
0.0313782
0.0313778
0.0313771
0.0313763
0.0313752
0.0313738
0.0313722
0.0313703
0.0313681
0.0313656
0.0313628
0.0313596
0.0313561
0.0313523
0.0313481
0.0313435
0.0313386
0.0313333
0.0313276
0.0313216
0.0313152
0.0313085
0.0313015
0.0312941
0.0312864
0.0312783
0.0312699
0.0312613
0.0312523
0.031243
0.0312335
0.0312237
0.0312136
0.0312033
0.0311928
0.031182
0.031171
0.0311597
0.0311483
0.0311367
0.0311249
0.0311129
0.0311007
0.0310884
0.0310759
0.0310633
0.0310505
0.0310376
0.0310246
0.0310115
0.0309982
0.0309849
0.0309714
0.0309579
0.0309443
0.0309306
0.0309168
0.030903
0.0308891
0.0308752
0.0308612
0.0308472
0.0308333
0.0308193
0.0308054
0.0307914
0.0307777
0.030764
0.0307509
0.0307373
0.0307255
0.0307118
0.0311547
0.031318
0.0314005
0.0314308
0.031434
0.031426
0.0314151
0.0314049
0.0313966
0.0313904
0.031386
0.0313829
0.0313808
0.0313794
0.0313785
0.031378
0.0313778
0.0313777
0.0313777
0.0313779
0.031378
0.0313782
0.0313784
0.0313786
0.0313787
0.0313788
0.0313787
0.0313786
0.0313782
0.0313778
0.0313771
0.0313763
0.0313752
0.0313738
0.0313722
0.0313703
0.0313681
0.0313656
0.0313628
0.0313596
0.0313561
0.0313523
0.0313481
0.0313435
0.0313386
0.0313333
0.0313276
0.0313216
0.0313152
0.0313085
0.0313015
0.0312941
0.0312864
0.0312783
0.0312699
0.0312613
0.0312523
0.031243
0.0312335
0.0312237
0.0312136
0.0312033
0.0311928
0.031182
0.031171
0.0311597
0.0311483
0.0311367
0.0311249
0.0311129
0.0311007
0.0310884
0.0310759
0.0310633
0.0310505
0.0310376
0.0310246
0.0310115
0.0309982
0.0309849
0.0309714
0.0309579
0.0309443
0.0309306
0.0309168
0.030903
0.0308891
0.0308752
0.0308612
0.0308472
0.0308333
0.0308193
0.0308054
0.0307914
0.0307777
0.030764
0.0307509
0.0307373
0.0307255
0.0307118
0.0311547
0.031318
0.0314005
0.0314308
0.031434
0.031426
0.0314151
0.0314049
0.0313966
0.0313904
0.031386
0.0313829
0.0313808
0.0313794
0.0313785
0.031378
0.0313778
0.0313777
0.0313777
0.0313779
0.031378
0.0313782
0.0313784
0.0313786
0.0313787
0.0313788
0.0313787
0.0313786
0.0313782
0.0313778
0.0313771
0.0313763
0.0313752
0.0313738
0.0313722
0.0313703
0.0313681
0.0313656
0.0313628
0.0313596
0.0313561
0.0313523
0.0313481
0.0313435
0.0313386
0.0313333
0.0313276
0.0313216
0.0313152
0.0313085
0.0313015
0.0312941
0.0312864
0.0312783
0.0312699
0.0312613
0.0312523
0.031243
0.0312335
0.0312237
0.0312136
0.0312033
0.0311928
0.031182
0.031171
0.0311597
0.0311483
0.0311367
0.0311249
0.0311129
0.0311007
0.0310884
0.0310759
0.0310633
0.0310505
0.0310376
0.0310246
0.0310115
0.0309982
0.0309849
0.0309715
0.0309579
0.0309443
0.0309306
0.0309168
0.030903
0.0308891
0.0308752
0.0308612
0.0308472
0.0308333
0.0308193
0.0308054
0.0307914
0.0307778
0.030764
0.0307509
0.0307373
0.0307255
0.0307118
0.0311547
0.031318
0.0314005
0.0314308
0.031434
0.031426
0.0314151
0.0314049
0.0313966
0.0313904
0.031386
0.0313829
0.0313808
0.0313794
0.0313785
0.031378
0.0313778
0.0313777
0.0313777
0.0313779
0.031378
0.0313782
0.0313784
0.0313786
0.0313787
0.0313788
0.0313787
0.0313786
0.0313782
0.0313778
0.0313771
0.0313763
0.0313752
0.0313738
0.0313722
0.0313703
0.0313681
0.0313656
0.0313628
0.0313596
0.0313561
0.0313523
0.0313481
0.0313435
0.0313386
0.0313333
0.0313276
0.0313216
0.0313152
0.0313085
0.0313015
0.0312941
0.0312864
0.0312783
0.0312699
0.0312613
0.0312523
0.031243
0.0312335
0.0312237
0.0312136
0.0312033
0.0311928
0.031182
0.031171
0.0311597
0.0311483
0.0311367
0.0311249
0.0311129
0.0311007
0.0310884
0.0310759
0.0310633
0.0310505
0.0310376
0.0310246
0.0310115
0.0309982
0.0309849
0.0309715
0.0309579
0.0309443
0.0309306
0.0309168
0.030903
0.0308891
0.0308752
0.0308612
0.0308472
0.0308333
0.0308193
0.0308054
0.0307914
0.0307778
0.030764
0.0307509
0.0307373
0.0307255
0.0307118
0.0311547
0.031318
0.0314005
0.0314308
0.031434
0.031426
0.0314151
0.0314049
0.0313966
0.0313904
0.031386
0.0313829
0.0313808
0.0313794
0.0313785
0.031378
0.0313778
0.0313777
0.0313777
0.0313779
0.031378
0.0313782
0.0313784
0.0313786
0.0313787
0.0313788
0.0313787
0.0313786
0.0313782
0.0313778
0.0313771
0.0313763
0.0313752
0.0313738
0.0313722
0.0313703
0.0313681
0.0313656
0.0313628
0.0313596
0.0313561
0.0313523
0.0313481
0.0313435
0.0313386
0.0313333
0.0313276
0.0313216
0.0313152
0.0313085
0.0313015
0.0312941
0.0312864
0.0312783
0.0312699
0.0312613
0.0312523
0.031243
0.0312335
0.0312237
0.0312136
0.0312033
0.0311928
0.031182
0.031171
0.0311597
0.0311483
0.0311367
0.0311249
0.0311129
0.0311007
0.0310884
0.0310759
0.0310633
0.0310505
0.0310376
0.0310246
0.0310115
0.0309982
0.0309849
0.0309715
0.0309579
0.0309443
0.0309306
0.0309168
0.030903
0.0308891
0.0308752
0.0308612
0.0308473
0.0308333
0.0308193
0.0308054
0.0307914
0.0307778
0.030764
0.0307509
0.0307373
0.0307255
0.0307118
0.0311547
0.031318
0.0314005
0.0314308
0.031434
0.031426
0.0314151
0.0314049
0.0313966
0.0313904
0.031386
0.0313829
0.0313808
0.0313794
0.0313785
0.031378
0.0313778
0.0313777
0.0313777
0.0313779
0.031378
0.0313782
0.0313784
0.0313786
0.0313787
0.0313788
0.0313787
0.0313786
0.0313782
0.0313778
0.0313771
0.0313763
0.0313752
0.0313738
0.0313722
0.0313703
0.0313681
0.0313656
0.0313628
0.0313596
0.0313561
0.0313523
0.0313481
0.0313435
0.0313386
0.0313333
0.0313276
0.0313216
0.0313153
0.0313085
0.0313015
0.0312941
0.0312864
0.0312783
0.0312699
0.0312613
0.0312523
0.031243
0.0312335
0.0312237
0.0312136
0.0312033
0.0311928
0.031182
0.031171
0.0311597
0.0311483
0.0311367
0.0311249
0.0311129
0.0311007
0.0310884
0.0310759
0.0310633
0.0310505
0.0310376
0.0310246
0.0310115
0.0309983
0.0309849
0.0309715
0.0309579
0.0309443
0.0309306
0.0309168
0.030903
0.0308891
0.0308752
0.0308613
0.0308473
0.0308333
0.0308193
0.0308054
0.0307914
0.0307778
0.030764
0.0307509
0.0307373
0.0307255
0.0307118
0.0311547
0.031318
0.0314005
0.0314308
0.031434
0.031426
0.0314151
0.0314049
0.0313966
0.0313904
0.031386
0.0313829
0.0313808
0.0313794
0.0313785
0.031378
0.0313778
0.0313777
0.0313777
0.0313779
0.031378
0.0313782
0.0313784
0.0313786
0.0313787
0.0313788
0.0313787
0.0313786
0.0313782
0.0313778
0.0313771
0.0313763
0.0313752
0.0313738
0.0313722
0.0313703
0.0313681
0.0313656
0.0313628
0.0313597
0.0313561
0.0313523
0.0313481
0.0313435
0.0313386
0.0313333
0.0313276
0.0313216
0.0313153
0.0313085
0.0313015
0.0312941
0.0312864
0.0312783
0.0312699
0.0312613
0.0312523
0.031243
0.0312335
0.0312237
0.0312136
0.0312033
0.0311928
0.031182
0.031171
0.0311597
0.0311483
0.0311367
0.0311249
0.0311129
0.0311007
0.0310884
0.0310759
0.0310633
0.0310505
0.0310377
0.0310246
0.0310115
0.0309983
0.0309849
0.0309715
0.0309579
0.0309443
0.0309306
0.0309169
0.030903
0.0308891
0.0308752
0.0308613
0.0308473
0.0308333
0.0308193
0.0308054
0.0307915
0.0307778
0.030764
0.0307509
0.0307373
0.0307255
0.0307118
0.0311547
0.031318
0.0314005
0.0314308
0.031434
0.031426
0.0314151
0.0314049
0.0313966
0.0313904
0.031386
0.0313829
0.0313808
0.0313794
0.0313785
0.031378
0.0313778
0.0313777
0.0313777
0.0313779
0.031378
0.0313782
0.0313784
0.0313786
0.0313787
0.0313788
0.0313787
0.0313786
0.0313782
0.0313778
0.0313771
0.0313763
0.0313752
0.0313738
0.0313722
0.0313703
0.0313681
0.0313656
0.0313628
0.0313597
0.0313561
0.0313523
0.0313481
0.0313435
0.0313386
0.0313333
0.0313276
0.0313216
0.0313153
0.0313085
0.0313015
0.0312941
0.0312864
0.0312783
0.0312699
0.0312613
0.0312523
0.0312431
0.0312335
0.0312237
0.0312136
0.0312033
0.0311928
0.031182
0.031171
0.0311597
0.0311483
0.0311367
0.0311249
0.0311129
0.0311007
0.0310884
0.0310759
0.0310633
0.0310506
0.0310377
0.0310246
0.0310115
0.0309983
0.0309849
0.0309715
0.0309579
0.0309443
0.0309306
0.0309169
0.030903
0.0308892
0.0308752
0.0308613
0.0308473
0.0308333
0.0308193
0.0308054
0.0307915
0.0307778
0.030764
0.0307509
0.0307374
0.0307255
0.0307118
0.0311547
0.031318
0.0314005
0.0314308
0.031434
0.031426
0.0314151
0.0314049
0.0313966
0.0313904
0.031386
0.0313829
0.0313808
0.0313794
0.0313785
0.031378
0.0313778
0.0313777
0.0313777
0.0313779
0.031378
0.0313782
0.0313784
0.0313786
0.0313787
0.0313788
0.0313787
0.0313786
0.0313782
0.0313778
0.0313771
0.0313763
0.0313752
0.0313738
0.0313722
0.0313703
0.0313681
0.0313656
0.0313628
0.0313597
0.0313562
0.0313523
0.0313481
0.0313435
0.0313386
0.0313333
0.0313276
0.0313216
0.0313153
0.0313085
0.0313015
0.0312941
0.0312864
0.0312783
0.03127
0.0312613
0.0312523
0.0312431
0.0312335
0.0312237
0.0312137
0.0312033
0.0311928
0.031182
0.031171
0.0311598
0.0311483
0.0311367
0.0311249
0.0311129
0.0311007
0.0310884
0.0310759
0.0310633
0.0310506
0.0310377
0.0310247
0.0310115
0.0309983
0.0309849
0.0309715
0.030958
0.0309443
0.0309307
0.0309169
0.0309031
0.0308892
0.0308753
0.0308613
0.0308473
0.0308333
0.0308193
0.0308054
0.0307915
0.0307778
0.030764
0.0307509
0.0307374
0.0307256
0.0307119
0.0311547
0.031318
0.0314005
0.0314308
0.031434
0.031426
0.0314151
0.0314049
0.0313966
0.0313904
0.031386
0.0313829
0.0313808
0.0313794
0.0313785
0.031378
0.0313778
0.0313777
0.0313777
0.0313779
0.031378
0.0313782
0.0313784
0.0313786
0.0313787
0.0313788
0.0313787
0.0313786
0.0313783
0.0313778
0.0313771
0.0313763
0.0313752
0.0313738
0.0313722
0.0313703
0.0313681
0.0313656
0.0313628
0.0313597
0.0313562
0.0313523
0.0313481
0.0313435
0.0313386
0.0313333
0.0313276
0.0313216
0.0313153
0.0313086
0.0313015
0.0312941
0.0312864
0.0312783
0.03127
0.0312613
0.0312523
0.0312431
0.0312335
0.0312237
0.0312137
0.0312033
0.0311928
0.031182
0.031171
0.0311598
0.0311483
0.0311367
0.0311249
0.0311129
0.0311008
0.0310884
0.031076
0.0310633
0.0310506
0.0310377
0.0310247
0.0310115
0.0309983
0.030985
0.0309715
0.030958
0.0309444
0.0309307
0.0309169
0.0309031
0.0308892
0.0308753
0.0308613
0.0308473
0.0308334
0.0308194
0.0308055
0.0307915
0.0307779
0.0307641
0.030751
0.0307374
0.0307256
0.0307119
0.0311547
0.031318
0.0314005
0.0314308
0.031434
0.031426
0.0314151
0.0314049
0.0313966
0.0313904
0.031386
0.0313829
0.0313808
0.0313794
0.0313785
0.031378
0.0313778
0.0313777
0.0313777
0.0313779
0.031378
0.0313782
0.0313784
0.0313786
0.0313787
0.0313788
0.0313787
0.0313786
0.0313783
0.0313778
0.0313771
0.0313763
0.0313752
0.0313738
0.0313722
0.0313703
0.0313682
0.0313657
0.0313628
0.0313597
0.0313562
0.0313523
0.0313481
0.0313435
0.0313386
0.0313333
0.0313277
0.0313216
0.0313153
0.0313086
0.0313015
0.0312941
0.0312864
0.0312783
0.03127
0.0312613
0.0312523
0.0312431
0.0312335
0.0312237
0.0312137
0.0312034
0.0311928
0.031182
0.031171
0.0311598
0.0311484
0.0311367
0.0311249
0.0311129
0.0311008
0.0310885
0.031076
0.0310634
0.0310506
0.0310377
0.0310247
0.0310116
0.0309983
0.030985
0.0309715
0.030958
0.0309444
0.0309307
0.0309169
0.0309031
0.0308892
0.0308753
0.0308614
0.0308474
0.0308334
0.0308194
0.0308055
0.0307916
0.0307779
0.0307641
0.030751
0.0307374
0.0307256
0.0307119
0.0311547
0.031318
0.0314005
0.0314308
0.031434
0.031426
0.0314151
0.0314049
0.0313966
0.0313904
0.031386
0.0313829
0.0313808
0.0313794
0.0313785
0.031378
0.0313778
0.0313777
0.0313777
0.0313779
0.031378
0.0313782
0.0313784
0.0313786
0.0313787
0.0313788
0.0313787
0.0313786
0.0313783
0.0313778
0.0313771
0.0313763
0.0313752
0.0313738
0.0313722
0.0313703
0.0313682
0.0313657
0.0313628
0.0313597
0.0313562
0.0313523
0.0313481
0.0313435
0.0313386
0.0313333
0.0313277
0.0313217
0.0313153
0.0313086
0.0313015
0.0312941
0.0312864
0.0312784
0.03127
0.0312613
0.0312524
0.0312431
0.0312336
0.0312238
0.0312137
0.0312034
0.0311928
0.031182
0.031171
0.0311598
0.0311484
0.0311368
0.0311249
0.031113
0.0311008
0.0310885
0.031076
0.0310634
0.0310506
0.0310377
0.0310247
0.0310116
0.0309984
0.030985
0.0309716
0.030958
0.0309444
0.0309307
0.030917
0.0309031
0.0308893
0.0308753
0.0308614
0.0308474
0.0308334
0.0308194
0.0308055
0.0307916
0.0307779
0.0307642
0.0307511
0.0307375
0.0307257
0.030712
0.0311547
0.031318
0.0314005
0.0314308
0.031434
0.031426
0.0314151
0.0314049
0.0313966
0.0313904
0.031386
0.0313829
0.0313808
0.0313794
0.0313785
0.031378
0.0313778
0.0313777
0.0313777
0.0313779
0.031378
0.0313782
0.0313784
0.0313786
0.0313787
0.0313788
0.0313787
0.0313786
0.0313783
0.0313778
0.0313771
0.0313763
0.0313752
0.0313738
0.0313722
0.0313704
0.0313682
0.0313657
0.0313628
0.0313597
0.0313562
0.0313523
0.0313481
0.0313435
0.0313386
0.0313333
0.0313277
0.0313217
0.0313153
0.0313086
0.0313015
0.0312941
0.0312864
0.0312784
0.03127
0.0312613
0.0312524
0.0312431
0.0312336
0.0312238
0.0312137
0.0312034
0.0311928
0.0311821
0.0311711
0.0311598
0.0311484
0.0311368
0.031125
0.031113
0.0311008
0.0310885
0.031076
0.0310634
0.0310507
0.0310378
0.0310248
0.0310116
0.0309984
0.0309851
0.0309716
0.0309581
0.0309445
0.0309308
0.030917
0.0309032
0.0308893
0.0308754
0.0308614
0.0308475
0.0308335
0.0308195
0.0308056
0.0307917
0.030778
0.0307642
0.0307511
0.0307375
0.0307257
0.030712
0.0311547
0.031318
0.0314005
0.0314308
0.031434
0.031426
0.0314151
0.0314049
0.0313966
0.0313904
0.031386
0.0313829
0.0313808
0.0313794
0.0313785
0.031378
0.0313778
0.0313777
0.0313777
0.0313779
0.031378
0.0313782
0.0313784
0.0313786
0.0313787
0.0313788
0.0313787
0.0313786
0.0313783
0.0313778
0.0313771
0.0313763
0.0313752
0.0313739
0.0313723
0.0313704
0.0313682
0.0313657
0.0313629
0.0313597
0.0313562
0.0313523
0.0313481
0.0313436
0.0313386
0.0313333
0.0313277
0.0313217
0.0313153
0.0313086
0.0313016
0.0312942
0.0312864
0.0312784
0.03127
0.0312614
0.0312524
0.0312431
0.0312336
0.0312238
0.0312137
0.0312034
0.0311929
0.0311821
0.0311711
0.0311599
0.0311484
0.0311368
0.031125
0.031113
0.0311009
0.0310886
0.0310761
0.0310635
0.0310507
0.0310378
0.0310248
0.0310117
0.0309984
0.0309851
0.0309717
0.0309581
0.0309445
0.0309308
0.0309171
0.0309033
0.0308894
0.0308755
0.0308615
0.0308475
0.0308335
0.0308196
0.0308057
0.0307917
0.0307781
0.0307643
0.0307512
0.0307376
0.0307258
0.0307121
0.0311547
0.031318
0.0314005
0.0314308
0.031434
0.031426
0.0314151
0.0314049
0.0313966
0.0313904
0.031386
0.0313829
0.0313808
0.0313794
0.0313785
0.031378
0.0313778
0.0313777
0.0313777
0.0313779
0.0313781
0.0313783
0.0313785
0.0313786
0.0313787
0.0313788
0.0313787
0.0313786
0.0313783
0.0313778
0.0313772
0.0313763
0.0313752
0.0313739
0.0313723
0.0313704
0.0313682
0.0313657
0.0313629
0.0313597
0.0313562
0.0313524
0.0313481
0.0313436
0.0313387
0.0313334
0.0313277
0.0313217
0.0313153
0.0313086
0.0313016
0.0312942
0.0312865
0.0312784
0.0312701
0.0312614
0.0312524
0.0312432
0.0312336
0.0312238
0.0312138
0.0312035
0.0311929
0.0311821
0.0311711
0.0311599
0.0311485
0.0311369
0.0311251
0.0311131
0.0311009
0.0310886
0.0310761
0.0310635
0.0310508
0.0310379
0.0310249
0.0310117
0.0309985
0.0309852
0.0309717
0.0309582
0.0309446
0.0309309
0.0309171
0.0309033
0.0308895
0.0308755
0.0308616
0.0308476
0.0308336
0.0308196
0.0308057
0.0307918
0.0307781
0.0307644
0.0307513
0.0307377
0.0307259
0.0307122
0.0311547
0.031318
0.0314005
0.0314308
0.031434
0.031426
0.0314151
0.0314049
0.0313966
0.0313904
0.031386
0.0313829
0.0313808
0.0313794
0.0313785
0.031378
0.0313778
0.0313777
0.0313778
0.0313779
0.0313781
0.0313783
0.0313785
0.0313786
0.0313788
0.0313788
0.0313788
0.0313786
0.0313783
0.0313778
0.0313772
0.0313763
0.0313752
0.0313739
0.0313723
0.0313704
0.0313682
0.0313657
0.0313629
0.0313597
0.0313562
0.0313524
0.0313482
0.0313436
0.0313387
0.0313334
0.0313277
0.0313217
0.0313154
0.0313087
0.0313016
0.0312942
0.0312865
0.0312785
0.0312701
0.0312614
0.0312525
0.0312432
0.0312337
0.0312239
0.0312138
0.0312035
0.031193
0.0311822
0.0311712
0.03116
0.0311485
0.0311369
0.0311251
0.0311131
0.031101
0.0310887
0.0310762
0.0310636
0.0310508
0.0310379
0.0310249
0.0310118
0.0309986
0.0309852
0.0309718
0.0309583
0.0309447
0.030931
0.0309172
0.0309034
0.0308895
0.0308756
0.0308617
0.0308477
0.0308337
0.0308197
0.0308058
0.0307919
0.0307782
0.0307645
0.0307514
0.0307378
0.030726
0.0307123
0.0311547
0.031318
0.0314005
0.0314308
0.031434
0.031426
0.0314151
0.0314049
0.0313966
0.0313904
0.031386
0.0313829
0.0313808
0.0313794
0.0313786
0.031378
0.0313778
0.0313777
0.0313778
0.0313779
0.0313781
0.0313783
0.0313785
0.0313786
0.0313788
0.0313788
0.0313788
0.0313786
0.0313783
0.0313778
0.0313772
0.0313763
0.0313752
0.0313739
0.0313723
0.0313704
0.0313682
0.0313657
0.0313629
0.0313598
0.0313563
0.0313524
0.0313482
0.0313436
0.0313387
0.0313334
0.0313278
0.0313218
0.0313154
0.0313087
0.0313016
0.0312943
0.0312865
0.0312785
0.0312701
0.0312615
0.0312525
0.0312433
0.0312337
0.0312239
0.0312139
0.0312036
0.031193
0.0311822
0.0311712
0.03116
0.0311486
0.031137
0.0311252
0.0311132
0.031101
0.0310887
0.0310763
0.0310637
0.0310509
0.031038
0.031025
0.0310119
0.0309987
0.0309853
0.0309719
0.0309584
0.0309448
0.0309311
0.0309173
0.0309035
0.0308897
0.0308757
0.0308618
0.0308478
0.0308338
0.0308199
0.030806
0.030792
0.0307784
0.0307646
0.0307515
0.0307379
0.0307261
0.0307124
0.0311547
0.031318
0.0314005
0.0314308
0.031434
0.031426
0.0314151
0.0314049
0.0313966
0.0313904
0.031386
0.0313829
0.0313808
0.0313794
0.0313786
0.0313781
0.0313778
0.0313777
0.0313778
0.0313779
0.0313781
0.0313783
0.0313785
0.0313787
0.0313788
0.0313788
0.0313788
0.0313786
0.0313783
0.0313779
0.0313772
0.0313763
0.0313753
0.0313739
0.0313723
0.0313704
0.0313683
0.0313658
0.0313629
0.0313598
0.0313563
0.0313524
0.0313482
0.0313437
0.0313387
0.0313335
0.0313278
0.0313218
0.0313155
0.0313087
0.0313017
0.0312943
0.0312866
0.0312785
0.0312702
0.0312615
0.0312526
0.0312433
0.0312338
0.031224
0.0312139
0.0312036
0.0311931
0.0311823
0.0311713
0.0311601
0.0311487
0.0311371
0.0311253
0.0311133
0.0311011
0.0310888
0.0310764
0.0310638
0.031051
0.0310381
0.0310251
0.031012
0.0309988
0.0309854
0.030972
0.0309585
0.0309449
0.0309312
0.0309175
0.0309037
0.0308898
0.0308759
0.0308619
0.030848
0.030834
0.03082
0.0308061
0.0307922
0.0307785
0.0307647
0.0307516
0.0307381
0.0307263
0.0307125
0.0311547
0.031318
0.0314005
0.0314308
0.031434
0.031426
0.0314151
0.0314049
0.0313966
0.0313904
0.031386
0.0313829
0.0313808
0.0313794
0.0313786
0.0313781
0.0313778
0.0313777
0.0313778
0.0313779
0.0313781
0.0313783
0.0313785
0.0313787
0.0313788
0.0313788
0.0313788
0.0313786
0.0313783
0.0313779
0.0313772
0.0313764
0.0313753
0.0313739
0.0313723
0.0313705
0.0313683
0.0313658
0.031363
0.0313598
0.0313563
0.0313525
0.0313483
0.0313437
0.0313388
0.0313335
0.0313279
0.0313219
0.0313155
0.0313088
0.0313017
0.0312944
0.0312866
0.0312786
0.0312702
0.0312616
0.0312526
0.0312434
0.0312339
0.0312241
0.031214
0.0312037
0.0311932
0.0311824
0.0311714
0.0311602
0.0311488
0.0311371
0.0311253
0.0311134
0.0311012
0.0310889
0.0310765
0.0310639
0.0310511
0.0310382
0.0310252
0.0310121
0.0309989
0.0309856
0.0309721
0.0309586
0.030945
0.0309314
0.0309176
0.0309038
0.0308899
0.030876
0.0308621
0.0308481
0.0308342
0.0308202
0.0308063
0.0307924
0.0307787
0.0307649
0.0307518
0.0307382
0.0307264
0.0307127
0.0311547
0.031318
0.0314005
0.0314308
0.031434
0.031426
0.0314151
0.0314049
0.0313966
0.0313904
0.031386
0.0313829
0.0313808
0.0313794
0.0313786
0.0313781
0.0313778
0.0313777
0.0313778
0.0313779
0.0313781
0.0313783
0.0313785
0.0313787
0.0313788
0.0313789
0.0313788
0.0313787
0.0313784
0.0313779
0.0313772
0.0313764
0.0313753
0.031374
0.0313724
0.0313705
0.0313683
0.0313658
0.031363
0.0313599
0.0313564
0.0313525
0.0313483
0.0313437
0.0313388
0.0313335
0.0313279
0.0313219
0.0313155
0.0313088
0.0313018
0.0312944
0.0312867
0.0312787
0.0312703
0.0312617
0.0312527
0.0312435
0.0312339
0.0312241
0.0312141
0.0312038
0.0311932
0.0311825
0.0311715
0.0311603
0.0311489
0.0311372
0.0311255
0.0311135
0.0311013
0.031089
0.0310766
0.031064
0.0310512
0.0310384
0.0310254
0.0310123
0.0309991
0.0309857
0.0309723
0.0309588
0.0309452
0.0309316
0.0309178
0.030904
0.0308902
0.0308763
0.0308623
0.0308484
0.0308344
0.0308205
0.0308066
0.0307926
0.030779
0.0307652
0.0307521
0.0307385
0.0307267
0.030713
0.0311547
0.031318
0.0314005
0.0314308
0.031434
0.031426
0.0314151
0.0314049
0.0313966
0.0313904
0.031386
0.0313829
0.0313808
0.0313794
0.0313786
0.0313781
0.0313778
0.0313777
0.0313778
0.0313779
0.0313781
0.0313783
0.0313785
0.0313787
0.0313788
0.0313789
0.0313788
0.0313787
0.0313784
0.0313779
0.0313773
0.0313764
0.0313753
0.031374
0.0313724
0.0313705
0.0313683
0.0313658
0.031363
0.0313599
0.0313564
0.0313525
0.0313483
0.0313438
0.0313389
0.0313336
0.0313279
0.0313219
0.0313156
0.0313089
0.0313018
0.0312945
0.0312867
0.0312787
0.0312704
0.0312617
0.0312527
0.0312435
0.031234
0.0312242
0.0312142
0.0312039
0.0311933
0.0311826
0.0311716
0.0311604
0.031149
0.0311374
0.0311256
0.0311136
0.0311015
0.0310892
0.0310767
0.0310641
0.0310514
0.0310386
0.0310256
0.0310125
0.0309993
0.030986
0.0309726
0.0309591
0.0309455
0.0309319
0.0309181
0.0309044
0.0308905
0.0308766
0.0308627
0.0308488
0.0308349
0.0308209
0.030807
0.0307931
0.0307795
0.0307657
0.0307526
0.0307391
0.0307273
0.0307136
0.0311547
0.031318
0.0314005
0.0314308
0.031434
0.031426
0.0314151
0.0314049
0.0313966
0.0313904
0.031386
0.0313829
0.0313808
0.0313794
0.0313786
0.0313781
0.0313778
0.0313777
0.0313778
0.0313779
0.0313781
0.0313783
0.0313785
0.0313787
0.0313788
0.0313789
0.0313788
0.0313787
0.0313784
0.0313779
0.0313773
0.0313764
0.0313753
0.031374
0.0313724
0.0313705
0.0313683
0.0313658
0.031363
0.0313599
0.0313564
0.0313525
0.0313483
0.0313438
0.0313389
0.0313336
0.031328
0.031322
0.0313156
0.0313089
0.0313019
0.0312945
0.0312868
0.0312788
0.0312704
0.0312618
0.0312528
0.0312436
0.0312341
0.0312243
0.0312143
0.031204
0.0311935
0.0311827
0.0311717
0.0311606
0.0311492
0.0311376
0.0311258
0.0311139
0.0311018
0.0310895
0.0310771
0.0310645
0.0310518
0.031039
0.0310261
0.031013
0.0309998
0.0309866
0.0309732
0.0309598
0.0309462
0.0309326
0.030919
0.0309052
0.0308914
0.0308776
0.0308638
0.0308499
0.030836
0.0308221
0.0308083
0.0307945
0.0307809
0.0307672
0.0307541
0.0307406
0.0307288
0.0307152
0.0311547
0.031318
0.0314005
0.0314308
0.031434
0.031426
0.0314151
0.0314049
0.0313966
0.0313904
0.031386
0.0313829
0.0313808
0.0313794
0.0313786
0.0313781
0.0313778
0.0313777
0.0313778
0.0313779
0.0313781
0.0313783
0.0313785
0.0313787
0.0313788
0.0313789
0.0313788
0.0313787
0.0313783
0.0313779
0.0313772
0.0313764
0.0313753
0.031374
0.0313724
0.0313705
0.0313683
0.0313658
0.031363
0.0313598
0.0313564
0.0313525
0.0313483
0.0313438
0.0313389
0.0313336
0.0313279
0.031322
0.0313156
0.0313089
0.0313019
0.0312945
0.0312869
0.0312788
0.0312705
0.0312619
0.031253
0.0312438
0.0312343
0.0312246
0.0312146
0.0312043
0.0311938
0.0311831
0.0311722
0.0311611
0.0311497
0.0311382
0.0311265
0.0311146
0.0311026
0.0310904
0.0310781
0.0310656
0.031053
0.0310402
0.0310274
0.0310144
0.0310013
0.0309882
0.0309749
0.0309616
0.0309482
0.0309347
0.0309211
0.0309075
0.0308939
0.0308802
0.0308665
0.0308527
0.030839
0.0308252
0.0308116
0.0307979
0.0307844
0.0307709
0.030758
0.0307446
0.0307329
0.0307194
0.0311547
0.031318
0.0314005
0.0314308
0.031434
0.031426
0.0314151
0.0314049
0.0313966
0.0313904
0.031386
0.0313829
0.0313808
0.0313794
0.0313785
0.031378
0.0313778
0.0313777
0.0313777
0.0313779
0.031378
0.0313782
0.0313784
0.0313786
0.0313787
0.0313788
0.0313787
0.0313786
0.0313783
0.0313778
0.0313771
0.0313763
0.0313752
0.0313739
0.0313723
0.0313704
0.0313682
0.0313657
0.0313629
0.0313598
0.0313563
0.0313525
0.0313483
0.0313438
0.0313389
0.0313336
0.031328
0.0313221
0.0313158
0.0313091
0.0313022
0.0312949
0.0312872
0.0312793
0.0312711
0.0312625
0.0312537
0.0312446
0.0312352
0.0312256
0.0312157
0.0312056
0.0311952
0.0311846
0.0311739
0.0311629
0.0311517
0.0311403
0.0311288
0.0311171
0.0311053
0.0310933
0.0310812
0.0310689
0.0310565
0.031044
0.0310314
0.0310187
0.0310058
0.0309929
0.03098
0.0309669
0.0309538
0.0309406
0.0309273
0.030914
0.0309007
0.0308873
0.0308739
0.0308605
0.0308471
0.0308337
0.0308204
0.0308071
0.030794
0.0307808
0.0307682
0.0307552
0.0307438
0.0307307
0.0311547
0.031318
0.0314005
0.0314308
0.0314339
0.031426
0.0314151
0.0314049
0.0313966
0.0313904
0.0313859
0.0313828
0.0313807
0.0313794
0.0313785
0.031378
0.0313777
0.0313776
0.0313777
0.0313778
0.0313779
0.0313781
0.0313783
0.0313785
0.0313786
0.0313787
0.0313786
0.0313784
0.0313781
0.0313777
0.031377
0.0313762
0.0313751
0.0313738
0.0313722
0.0313703
0.0313682
0.0313657
0.0313629
0.0313599
0.0313564
0.0313527
0.0313486
0.0313441
0.0313393
0.0313342
0.0313287
0.0313229
0.0313167
0.0313102
0.0313034
0.0312963
0.0312889
0.0312812
0.0312731
0.0312648
0.0312563
0.0312474
0.0312383
0.031229
0.0312195
0.0312097
0.0311997
0.0311895
0.0311791
0.0311685
0.0311577
0.0311468
0.0311357
0.0311245
0.0311131
0.0311016
0.03109
0.0310782
0.0310663
0.0310544
0.0310423
0.0310302
0.0310179
0.0310056
0.0309933
0.0309808
0.0309683
0.0309558
0.0309432
0.0309306
0.0309179
0.0309052
0.0308925
0.0308798
0.0308672
0.0308545
0.0308419
0.0308293
0.030817
0.0308045
0.0307927
0.0307804
0.0307697
0.0307573
0.0311547
0.031318
0.0314005
0.0314308
0.0314339
0.0314259
0.031415
0.0314048
0.0313965
0.0313903
0.0313859
0.0313828
0.0313807
0.0313793
0.0313784
0.0313779
0.0313776
0.0313775
0.0313775
0.0313776
0.0313777
0.0313779
0.0313781
0.0313782
0.0313783
0.0313784
0.0313783
0.0313781
0.0313778
0.0313774
0.0313768
0.0313759
0.0313749
0.0313736
0.0313721
0.0313703
0.0313683
0.031366
0.0313633
0.0313604
0.0313572
0.0313536
0.0313497
0.0313456
0.0313411
0.0313362
0.0313311
0.0313257
0.0313199
0.0313139
0.0313075
0.0313009
0.031294
0.0312868
0.0312794
0.0312717
0.0312638
0.0312556
0.0312472
0.0312386
0.0312298
0.0312208
0.0312116
0.0312023
0.0311927
0.031183
0.0311732
0.0311632
0.0311531
0.0311429
0.0311325
0.031122
0.0311114
0.0311008
0.03109
0.0310791
0.0310682
0.0310572
0.0310462
0.031035
0.0310239
0.0310126
0.0310014
0.0309901
0.0309787
0.0309674
0.030956
0.0309446
0.0309333
0.0309219
0.0309105
0.0308992
0.030888
0.0308768
0.0308657
0.0308547
0.0308442
0.0308333
0.0308238
0.0308127
0.0311547
0.031318
0.0314005
0.0314308
0.0314339
0.0314259
0.031415
0.0314048
0.0313965
0.0313903
0.0313858
0.0313827
0.0313806
0.0313792
0.0313783
0.0313778
0.0313775
0.0313774
0.0313774
0.0313774
0.0313776
0.0313778
0.0313779
0.0313781
0.0313782
0.0313783
0.0313782
0.0313781
0.0313779
0.0313775
0.031377
0.0313763
0.0313754
0.0313744
0.0313731
0.0313716
0.0313699
0.0313679
0.0313657
0.0313632
0.0313604
0.0313575
0.0313542
0.0313507
0.0313469
0.0313428
0.0313385
0.0313339
0.0313291
0.031324
0.0313187
0.0313132
0.0313074
0.0313014
0.0312952
0.0312888
0.0312822
0.0312755
0.0312685
0.0312613
0.031254
0.0312466
0.031239
0.0312312
0.0312233
0.0312153
0.0312072
0.0311989
0.0311906
0.0311821
0.0311736
0.0311649
0.0311562
0.0311474
0.0311386
0.0311297
0.0311207
0.0311117
0.0311026
0.0310935
0.0310843
0.0310751
0.0310659
0.0310567
0.0310474
0.0310381
0.0310288
0.0310196
0.0310103
0.031001
0.0309918
0.0309826
0.0309735
0.0309644
0.0309556
0.0309467
0.0309382
0.0309295
0.0309219
0.0309132
0.0311547
0.031318
0.0314005
0.0314307
0.0314339
0.0314259
0.0314151
0.0314048
0.0313966
0.0313903
0.0313858
0.0313826
0.0313805
0.031379
0.031378
0.0313774
0.031377
0.0313768
0.0313768
0.0313768
0.0313768
0.031377
0.0313771
0.0313772
0.0313773
0.0313774
0.0313774
0.0313774
0.0313773
0.0313771
0.0313768
0.0313764
0.0313758
0.0313752
0.0313744
0.0313734
0.0313723
0.0313711
0.0313696
0.031368
0.0313662
0.0313643
0.0313621
0.0313598
0.0313573
0.0313546