/*--------------------------------*- C++ -*----------------------------------*\
| =========                 |                                                 |
| \\      /  F ield         | OpenFOAM: The Open Source CFD Toolbox           |
|  \\    /   O peration     | Version:  5.x                                   |
|   \\  /    A nd           | Web:      www.OpenFOAM.org                      |
|    \\/     M anipulation  |                                                 |
\*---------------------------------------------------------------------------*/
FoamFile
{
    version     2.0;
    format      ascii;
    class       volScalarField;
    location    "0";
    object      nut;
}
// * * * * * * * * * * * * * * * * * * * * * * * * * * * * * * * * * * * * * //

dimensions      [0 2 -1 0 0 0 0];

internalField   nonuniform List<scalar> 
87000
(
0.0274985
0.0276427
0.0277155
0.0277422
0.027745
0.027738
0.0277284
0.0277194
0.0277121
0.0277066
0.0277027
0.0276999
0.0276981
0.0276969
0.0276961
0.0276957
0.0276954
0.0276954
0.0276954
0.0276955
0.0276957
0.0276958
0.027696
0.0276962
0.0276963
0.0276963
0.0276963
0.0276961
0.0276958
0.0276954
0.0276949
0.0276941
0.0276931
0.0276919
0.0276905
0.0276889
0.0276869
0.0276847
0.0276822
0.0276794
0.0276763
0.0276729
0.0276692
0.0276652
0.0276608
0.0276562
0.0276512
0.0276459
0.0276402
0.0276343
0.0276281
0.0276216
0.0276147
0.0276076
0.0276002
0.0275926
0.0275847
0.0275765
0.0275681
0.0275594
0.0275505
0.0275414
0.0275321
0.0275226
0.0275129
0.027503
0.0274929
0.0274826
0.0274722
0.0274616
0.0274509
0.02744
0.027429
0.0274178
0.0274066
0.0273952
0.0273837
0.0273721
0.0273604
0.0273486
0.0273368
0.0273248
0.0273128
0.0273007
0.0272886
0.0272764
0.0272641
0.0272518
0.0272395
0.0272271
0.0272148
0.0272024
0.0271902
0.0271779
0.0271658
0.0271536
0.0271421
0.0271301
0.0271197
0.0271076
0.0274985
0.0276427
0.0277155
0.0277422
0.027745
0.027738
0.0277284
0.0277194
0.0277121
0.0277066
0.0277027
0.0276999
0.0276981
0.0276969
0.0276961
0.0276957
0.0276954
0.0276954
0.0276954
0.0276955
0.0276957
0.0276958
0.027696
0.0276962
0.0276963
0.0276963
0.0276963
0.0276961
0.0276959
0.0276954
0.0276949
0.0276941
0.0276931
0.0276919
0.0276905
0.0276889
0.0276869
0.0276847
0.0276822
0.0276794
0.0276763
0.0276729
0.0276692
0.0276652
0.0276608
0.0276562
0.0276512
0.0276459
0.0276402
0.0276343
0.0276281
0.0276216
0.0276147
0.0276076
0.0276003
0.0275926
0.0275847
0.0275765
0.0275681
0.0275594
0.0275506
0.0275414
0.0275321
0.0275226
0.0275129
0.027503
0.0274929
0.0274826
0.0274722
0.0274616
0.0274509
0.02744
0.027429
0.0274179
0.0274066
0.0273952
0.0273837
0.0273721
0.0273604
0.0273487
0.0273368
0.0273248
0.0273128
0.0273007
0.0272886
0.0272764
0.0272641
0.0272518
0.0272395
0.0272271
0.0272148
0.0272024
0.0271902
0.0271779
0.0271658
0.0271536
0.0271421
0.0271301
0.0271197
0.0271076
0.0274985
0.0276427
0.0277155
0.0277422
0.027745
0.027738
0.0277284
0.0277194
0.0277121
0.0277066
0.0277027
0.0276999
0.0276981
0.0276969
0.0276961
0.0276957
0.0276954
0.0276954
0.0276954
0.0276955
0.0276957
0.0276958
0.027696
0.0276962
0.0276963
0.0276963
0.0276963
0.0276961
0.0276959
0.0276954
0.0276949
0.0276941
0.0276931
0.027692
0.0276905
0.0276889
0.0276869
0.0276847
0.0276822
0.0276794
0.0276763
0.0276729
0.0276692
0.0276652
0.0276608
0.0276562
0.0276512
0.0276459
0.0276403
0.0276343
0.0276281
0.0276216
0.0276147
0.0276076
0.0276003
0.0275926
0.0275847
0.0275765
0.0275681
0.0275594
0.0275506
0.0275415
0.0275321
0.0275226
0.0275129
0.027503
0.0274929
0.0274826
0.0274722
0.0274616
0.0274509
0.02744
0.027429
0.0274179
0.0274066
0.0273952
0.0273837
0.0273721
0.0273604
0.0273487
0.0273368
0.0273248
0.0273128
0.0273007
0.0272886
0.0272764
0.0272641
0.0272518
0.0272395
0.0272272
0.0272148
0.0272025
0.0271902
0.0271779
0.0271658
0.0271536
0.0271421
0.0271301
0.0271197
0.0271076
0.0274985
0.0276427
0.0277155
0.0277422
0.027745
0.027738
0.0277284
0.0277194
0.0277121
0.0277066
0.0277027
0.0276999
0.0276981
0.0276969
0.0276961
0.0276957
0.0276954
0.0276954
0.0276954
0.0276955
0.0276957
0.0276958
0.027696
0.0276962
0.0276963
0.0276963
0.0276963
0.0276961
0.0276959
0.0276954
0.0276949
0.0276941
0.0276931
0.027692
0.0276905
0.0276889
0.0276869
0.0276847
0.0276822
0.0276794
0.0276763
0.0276729
0.0276692
0.0276652
0.0276608
0.0276562
0.0276512
0.0276459
0.0276403
0.0276343
0.0276281
0.0276216
0.0276147
0.0276076
0.0276003
0.0275926
0.0275847
0.0275765
0.0275681
0.0275594
0.0275506
0.0275415
0.0275321
0.0275226
0.0275129
0.027503
0.0274929
0.0274826
0.0274722
0.0274616
0.0274509
0.02744
0.027429
0.0274179
0.0274066
0.0273952
0.0273837
0.0273721
0.0273604
0.0273487
0.0273368
0.0273248
0.0273128
0.0273007
0.0272886
0.0272764
0.0272641
0.0272518
0.0272395
0.0272272
0.0272148
0.0272025
0.0271902
0.0271779
0.0271658
0.0271536
0.0271421
0.0271301
0.0271197
0.0271076
0.0274985
0.0276427
0.0277155
0.0277422
0.027745
0.027738
0.0277284
0.0277194
0.0277121
0.0277066
0.0277027
0.0276999
0.0276981
0.0276969
0.0276961
0.0276957
0.0276954
0.0276954
0.0276954
0.0276955
0.0276957
0.0276958
0.027696
0.0276962
0.0276963
0.0276963
0.0276963
0.0276961
0.0276959
0.0276954
0.0276949
0.0276941
0.0276931
0.027692
0.0276905
0.0276889
0.0276869
0.0276847
0.0276822
0.0276794
0.0276763
0.0276729
0.0276692
0.0276652
0.0276608
0.0276562
0.0276512
0.0276459
0.0276403
0.0276343
0.0276281
0.0276216
0.0276147
0.0276076
0.0276003
0.0275926
0.0275847
0.0275765
0.0275681
0.0275594
0.0275506
0.0275415
0.0275321
0.0275226
0.0275129
0.027503
0.0274929
0.0274826
0.0274722
0.0274616
0.0274509
0.02744
0.027429
0.0274179
0.0274066
0.0273952
0.0273837
0.0273721
0.0273604
0.0273487
0.0273368
0.0273248
0.0273128
0.0273007
0.0272886
0.0272764
0.0272641
0.0272518
0.0272395
0.0272272
0.0272148
0.0272025
0.0271902
0.0271779
0.0271658
0.0271537
0.0271421
0.0271301
0.0271197
0.0271076
0.0274985
0.0276427
0.0277155
0.0277422
0.027745
0.027738
0.0277284
0.0277194
0.0277121
0.0277066
0.0277027
0.0276999
0.0276981
0.0276969
0.0276961
0.0276957
0.0276954
0.0276954
0.0276954
0.0276955
0.0276957
0.0276958
0.027696
0.0276962
0.0276963
0.0276963
0.0276963
0.0276961
0.0276959
0.0276954
0.0276949
0.0276941
0.0276931
0.027692
0.0276905
0.0276889
0.0276869
0.0276847
0.0276822
0.0276794
0.0276763
0.0276729
0.0276692
0.0276652
0.0276608
0.0276562
0.0276512
0.0276459
0.0276403
0.0276343
0.0276281
0.0276216
0.0276147
0.0276076
0.0276003
0.0275926
0.0275847
0.0275765
0.0275681
0.0275594
0.0275506
0.0275415
0.0275321
0.0275226
0.0275129
0.027503
0.0274929
0.0274826
0.0274722
0.0274616
0.0274509
0.02744
0.027429
0.0274179
0.0274066
0.0273952
0.0273837
0.0273721
0.0273604
0.0273487
0.0273368
0.0273249
0.0273128
0.0273007
0.0272886
0.0272764
0.0272641
0.0272518
0.0272395
0.0272272
0.0272148
0.0272025
0.0271902
0.0271779
0.0271658
0.0271537
0.0271421
0.0271301
0.0271197
0.0271076
0.0274985
0.0276427
0.0277155
0.0277422
0.027745
0.027738
0.0277284
0.0277194
0.0277121
0.0277066
0.0277027
0.0276999
0.0276981
0.0276969
0.0276961
0.0276957
0.0276954
0.0276954
0.0276954
0.0276955
0.0276957
0.0276958
0.027696
0.0276962
0.0276963
0.0276963
0.0276963
0.0276961
0.0276959
0.0276954
0.0276949
0.0276941
0.0276931
0.027692
0.0276905
0.0276889
0.0276869
0.0276847
0.0276822
0.0276794
0.0276763
0.0276729
0.0276692
0.0276652
0.0276608
0.0276562
0.0276512
0.0276459
0.0276403
0.0276343
0.0276281
0.0276216
0.0276148
0.0276076
0.0276003
0.0275926
0.0275847
0.0275765
0.0275681
0.0275594
0.0275506
0.0275415
0.0275321
0.0275226
0.0275129
0.027503
0.0274929
0.0274826
0.0274722
0.0274616
0.0274509
0.02744
0.027429
0.0274179
0.0274066
0.0273952
0.0273837
0.0273721
0.0273605
0.0273487
0.0273368
0.0273249
0.0273128
0.0273007
0.0272886
0.0272764
0.0272641
0.0272518
0.0272395
0.0272272
0.0272148
0.0272025
0.0271902
0.0271779
0.0271658
0.0271537
0.0271421
0.0271301
0.0271197
0.0271076
0.0274985
0.0276427
0.0277155
0.0277422
0.027745
0.027738
0.0277284
0.0277194
0.0277121
0.0277066
0.0277027
0.0276999
0.0276981
0.0276969
0.0276961
0.0276957
0.0276954
0.0276954
0.0276954
0.0276955
0.0276957
0.0276958
0.027696
0.0276962
0.0276963
0.0276963
0.0276963
0.0276961
0.0276959
0.0276954
0.0276949
0.0276941
0.0276931
0.027692
0.0276905
0.0276889
0.0276869
0.0276847
0.0276822
0.0276794
0.0276764
0.0276729
0.0276692
0.0276652
0.0276608
0.0276562
0.0276512
0.0276459
0.0276403
0.0276343
0.0276281
0.0276216
0.0276148
0.0276076
0.0276003
0.0275926
0.0275847
0.0275765
0.0275681
0.0275595
0.0275506
0.0275415
0.0275321
0.0275226
0.0275129
0.027503
0.0274929
0.0274826
0.0274722
0.0274616
0.0274509
0.02744
0.027429
0.0274179
0.0274066
0.0273952
0.0273837
0.0273721
0.0273605
0.0273487
0.0273368
0.0273249
0.0273128
0.0273008
0.0272886
0.0272764
0.0272641
0.0272518
0.0272395
0.0272272
0.0272148
0.0272025
0.0271902
0.0271779
0.0271658
0.0271537
0.0271421
0.0271301
0.0271197
0.0271076
0.0274985
0.0276427
0.0277155
0.0277422
0.027745
0.027738
0.0277284
0.0277194
0.0277121
0.0277066
0.0277027
0.0276999
0.0276981
0.0276969
0.0276961
0.0276957
0.0276954
0.0276954
0.0276954
0.0276955
0.0276957
0.0276958
0.027696
0.0276962
0.0276963
0.0276963
0.0276963
0.0276961
0.0276959
0.0276954
0.0276949
0.0276941
0.0276931
0.027692
0.0276905
0.0276889
0.0276869
0.0276847
0.0276822
0.0276794
0.0276764
0.0276729
0.0276692
0.0276652
0.0276608
0.0276562
0.0276512
0.0276459
0.0276403
0.0276343
0.0276281
0.0276216
0.0276148
0.0276076
0.0276003
0.0275926
0.0275847
0.0275765
0.0275681
0.0275595
0.0275506
0.0275415
0.0275321
0.0275226
0.0275129
0.027503
0.0274929
0.0274826
0.0274722
0.0274616
0.0274509
0.02744
0.027429
0.0274179
0.0274066
0.0273952
0.0273837
0.0273722
0.0273605
0.0273487
0.0273368
0.0273249
0.0273128
0.0273008
0.0272886
0.0272764
0.0272641
0.0272519
0.0272395
0.0272272
0.0272148
0.0272025
0.0271902
0.0271779
0.0271658
0.0271537
0.0271421
0.0271301
0.0271197
0.0271076
0.0274985
0.0276427
0.0277155
0.0277422
0.027745
0.027738
0.0277284
0.0277194
0.0277121
0.0277066
0.0277027
0.0276999
0.0276981
0.0276969
0.0276961
0.0276957
0.0276954
0.0276954
0.0276954
0.0276955
0.0276957
0.0276959
0.027696
0.0276962
0.0276963
0.0276963
0.0276963
0.0276961
0.0276959
0.0276954
0.0276949
0.0276941
0.0276931
0.027692
0.0276905
0.0276889
0.0276869
0.0276847
0.0276822
0.0276794
0.0276764
0.027673
0.0276692
0.0276652
0.0276608
0.0276562
0.0276512
0.0276459
0.0276403
0.0276343
0.0276281
0.0276216
0.0276148
0.0276077
0.0276003
0.0275926
0.0275847
0.0275765
0.0275681
0.0275595
0.0275506
0.0275415
0.0275322
0.0275226
0.0275129
0.027503
0.0274929
0.0274827
0.0274722
0.0274616
0.0274509
0.02744
0.027429
0.0274179
0.0274066
0.0273952
0.0273838
0.0273722
0.0273605
0.0273487
0.0273368
0.0273249
0.0273129
0.0273008
0.0272886
0.0272764
0.0272642
0.0272519
0.0272395
0.0272272
0.0272149
0.0272025
0.0271902
0.0271779
0.0271659
0.0271537
0.0271421
0.0271302
0.0271197
0.0271076
0.0274985
0.0276427
0.0277155
0.0277422
0.027745
0.027738
0.0277284
0.0277194
0.0277121
0.0277066
0.0277027
0.0276999
0.0276981
0.0276969
0.0276961
0.0276957
0.0276954
0.0276954
0.0276954
0.0276955
0.0276957
0.0276959
0.027696
0.0276962
0.0276963
0.0276963
0.0276963
0.0276961
0.0276959
0.0276954
0.0276949
0.0276941
0.0276931
0.027692
0.0276905
0.0276889
0.0276869
0.0276847
0.0276822
0.0276795
0.0276764
0.027673
0.0276692
0.0276652
0.0276608
0.0276562
0.0276512
0.0276459
0.0276403
0.0276343
0.0276281
0.0276216
0.0276148
0.0276077
0.0276003
0.0275926
0.0275847
0.0275765
0.0275681
0.0275595
0.0275506
0.0275415
0.0275322
0.0275226
0.0275129
0.027503
0.0274929
0.0274827
0.0274722
0.0274617
0.0274509
0.02744
0.027429
0.0274179
0.0274066
0.0273953
0.0273838
0.0273722
0.0273605
0.0273487
0.0273368
0.0273249
0.0273129
0.0273008
0.0272886
0.0272764
0.0272642
0.0272519
0.0272396
0.0272272
0.0272149
0.0272025
0.0271902
0.0271779
0.0271659
0.0271537
0.0271422
0.0271302
0.0271198
0.0271077
0.0274985
0.0276427
0.0277155
0.0277422
0.027745
0.027738
0.0277284
0.0277194
0.0277121
0.0277066
0.0277027
0.0276999
0.0276981
0.0276969
0.0276961
0.0276957
0.0276954
0.0276954
0.0276954
0.0276955
0.0276957
0.0276959
0.027696
0.0276962
0.0276963
0.0276963
0.0276963
0.0276961
0.0276959
0.0276954
0.0276949
0.0276941
0.0276931
0.027692
0.0276905
0.0276889
0.0276869
0.0276847
0.0276822
0.0276795
0.0276764
0.027673
0.0276692
0.0276652
0.0276609
0.0276562
0.0276512
0.0276459
0.0276403
0.0276343
0.0276281
0.0276216
0.0276148
0.0276077
0.0276003
0.0275926
0.0275847
0.0275765
0.0275681
0.0275595
0.0275506
0.0275415
0.0275322
0.0275226
0.0275129
0.027503
0.0274929
0.0274827
0.0274722
0.0274617
0.0274509
0.0274401
0.027429
0.0274179
0.0274066
0.0273953
0.0273838
0.0273722
0.0273605
0.0273487
0.0273369
0.0273249
0.0273129
0.0273008
0.0272887
0.0272764
0.0272642
0.0272519
0.0272396
0.0272272
0.0272149
0.0272025
0.0271903
0.027178
0.0271659
0.0271537
0.0271422
0.0271302
0.0271198
0.0271077
0.0274985
0.0276427
0.0277155
0.0277422
0.027745
0.027738
0.0277284
0.0277194
0.0277121
0.0277066
0.0277027
0.0276999
0.0276981
0.0276969
0.0276961
0.0276957
0.0276954
0.0276954
0.0276954
0.0276955
0.0276957
0.0276959
0.027696
0.0276962
0.0276963
0.0276963
0.0276963
0.0276961
0.0276959
0.0276955
0.0276949
0.0276941
0.0276931
0.027692
0.0276905
0.0276889
0.0276869
0.0276847
0.0276822
0.0276795
0.0276764
0.027673
0.0276692
0.0276652
0.0276609
0.0276562
0.0276512
0.0276459
0.0276403
0.0276344
0.0276281
0.0276216
0.0276148
0.0276077
0.0276003
0.0275926
0.0275847
0.0275766
0.0275681
0.0275595
0.0275506
0.0275415
0.0275322
0.0275227
0.0275129
0.027503
0.0274929
0.0274827
0.0274723
0.0274617
0.0274509
0.0274401
0.0274291
0.0274179
0.0274067
0.0273953
0.0273838
0.0273722
0.0273605
0.0273487
0.0273369
0.0273249
0.0273129
0.0273008
0.0272887
0.0272765
0.0272642
0.0272519
0.0272396
0.0272273
0.0272149
0.0272026
0.0271903
0.027178
0.0271659
0.0271538
0.0271422
0.0271302
0.0271198
0.0271077
0.0274985
0.0276427
0.0277155
0.0277422
0.027745
0.027738
0.0277284
0.0277194
0.0277121
0.0277066
0.0277027
0.0276999
0.0276981
0.0276969
0.0276961
0.0276957
0.0276954
0.0276954
0.0276954
0.0276955
0.0276957
0.0276959
0.027696
0.0276962
0.0276963
0.0276963
0.0276963
0.0276961
0.0276959
0.0276955
0.0276949
0.0276941
0.0276932
0.027692
0.0276906
0.0276889
0.027687
0.0276847
0.0276823
0.0276795
0.0276764
0.027673
0.0276693
0.0276652
0.0276609
0.0276562
0.0276512
0.0276459
0.0276403
0.0276344
0.0276281
0.0276216
0.0276148
0.0276077
0.0276003
0.0275927
0.0275847
0.0275766
0.0275682
0.0275595
0.0275506
0.0275415
0.0275322
0.0275227
0.027513
0.0275031
0.027493
0.0274827
0.0274723
0.0274617
0.027451
0.0274401
0.0274291
0.0274179
0.0274067
0.0273953
0.0273838
0.0273722
0.0273605
0.0273488
0.0273369
0.027325
0.0273129
0.0273009
0.0272887
0.0272765
0.0272643
0.027252
0.0272396
0.0272273
0.027215
0.0272026
0.0271903
0.027178
0.027166
0.0271538
0.0271423
0.0271303
0.0271199
0.0271078
0.0274985
0.0276427
0.0277155
0.0277422
0.027745
0.027738
0.0277284
0.0277194
0.0277121
0.0277066
0.0277027
0.0276999
0.0276981
0.0276969
0.0276961
0.0276957
0.0276954
0.0276954
0.0276954
0.0276955
0.0276957
0.0276959
0.027696
0.0276962
0.0276963
0.0276963
0.0276963
0.0276961
0.0276959
0.0276955
0.0276949
0.0276941
0.0276932
0.027692
0.0276906
0.0276889
0.027687
0.0276848
0.0276823
0.0276795
0.0276764
0.027673
0.0276693
0.0276652
0.0276609
0.0276562
0.0276512
0.0276459
0.0276403
0.0276344
0.0276281
0.0276216
0.0276148
0.0276077
0.0276003
0.0275927
0.0275848
0.0275766
0.0275682
0.0275595
0.0275506
0.0275415
0.0275322
0.0275227
0.027513
0.0275031
0.027493
0.0274827
0.0274723
0.0274617
0.027451
0.0274401
0.0274291
0.027418
0.0274067
0.0273953
0.0273839
0.0273723
0.0273606
0.0273488
0.0273369
0.027325
0.027313
0.0273009
0.0272887
0.0272765
0.0272643
0.027252
0.0272397
0.0272273
0.027215
0.0272027
0.0271904
0.0271781
0.027166
0.0271539
0.0271423
0.0271303
0.0271199
0.0271078
0.0274985
0.0276427
0.0277155
0.0277422
0.027745
0.027738
0.0277284
0.0277194
0.0277121
0.0277066
0.0277027
0.0276999
0.0276981
0.0276969
0.0276961
0.0276957
0.0276954
0.0276954
0.0276954
0.0276955
0.0276957
0.0276959
0.027696
0.0276962
0.0276963
0.0276963
0.0276963
0.0276962
0.0276959
0.0276955
0.0276949
0.0276941
0.0276932
0.027692
0.0276906
0.0276889
0.027687
0.0276848
0.0276823
0.0276795
0.0276764
0.027673
0.0276693
0.0276652
0.0276609
0.0276562
0.0276512
0.0276459
0.0276403
0.0276344
0.0276282
0.0276216
0.0276148
0.0276077
0.0276003
0.0275927
0.0275848
0.0275766
0.0275682
0.0275595
0.0275507
0.0275416
0.0275322
0.0275227
0.027513
0.0275031
0.027493
0.0274828
0.0274723
0.0274618
0.027451
0.0274402
0.0274292
0.027418
0.0274068
0.0273954
0.0273839
0.0273723
0.0273606
0.0273488
0.027337
0.027325
0.027313
0.0273009
0.0272888
0.0272766
0.0272644
0.0272521
0.0272397
0.0272274
0.0272151
0.0272027
0.0271904
0.0271782
0.0271661
0.0271539
0.0271424
0.0271304
0.02712
0.0271079
0.0274985
0.0276427
0.0277155
0.0277422
0.027745
0.027738
0.0277284
0.0277194
0.0277121
0.0277066
0.0277027
0.0276999
0.0276981
0.0276969
0.0276961
0.0276957
0.0276955
0.0276954
0.0276954
0.0276955
0.0276957
0.0276959
0.027696
0.0276962
0.0276963
0.0276963
0.0276963
0.0276962
0.0276959
0.0276955
0.0276949
0.0276941
0.0276932
0.027692
0.0276906
0.0276889
0.027687
0.0276848
0.0276823
0.0276795
0.0276764
0.027673
0.0276693
0.0276653
0.0276609
0.0276562
0.0276513
0.027646
0.0276403
0.0276344
0.0276282
0.0276217
0.0276148
0.0276077
0.0276004
0.0275927
0.0275848
0.0275766
0.0275682
0.0275596
0.0275507
0.0275416
0.0275323
0.0275228
0.027513
0.0275031
0.0274931
0.0274828
0.0274724
0.0274618
0.0274511
0.0274402
0.0274292
0.0274181
0.0274068
0.0273954
0.0273839
0.0273724
0.0273607
0.0273489
0.027337
0.0273251
0.0273131
0.027301
0.0272889
0.0272767
0.0272644
0.0272521
0.0272398
0.0272275
0.0272151
0.0272028
0.0271905
0.0271782
0.0271662
0.027154
0.0271424
0.0271305
0.02712
0.0271079
0.0274985
0.0276427
0.0277155
0.0277422
0.027745
0.027738
0.0277284
0.0277194
0.0277121
0.0277066
0.0277027
0.0276999
0.0276981
0.0276969
0.0276961
0.0276957
0.0276955
0.0276954
0.0276954
0.0276955
0.0276957
0.0276959
0.027696
0.0276962
0.0276963
0.0276964
0.0276963
0.0276962
0.0276959
0.0276955
0.0276949
0.0276941
0.0276932
0.027692
0.0276906
0.0276889
0.027687
0.0276848
0.0276823
0.0276795
0.0276764
0.027673
0.0276693
0.0276653
0.0276609
0.0276563
0.0276513
0.027646
0.0276404
0.0276344
0.0276282
0.0276217
0.0276149
0.0276078
0.0276004
0.0275927
0.0275848
0.0275767
0.0275683
0.0275596
0.0275507
0.0275416
0.0275323
0.0275228
0.0275131
0.0275032
0.0274931
0.0274828
0.0274724
0.0274619
0.0274511
0.0274403
0.0274293
0.0274181
0.0274069
0.0273955
0.027384
0.0273724
0.0273607
0.027349
0.0273371
0.0273252
0.0273132
0.0273011
0.0272889
0.0272767
0.0272645
0.0272522
0.0272399
0.0272276
0.0272152
0.0272029
0.0271906
0.0271783
0.0271663
0.0271541
0.0271425
0.0271306
0.0271201
0.027108
0.0274985
0.0276427
0.0277155
0.0277422
0.027745
0.027738
0.0277284
0.0277194
0.0277121
0.0277066
0.0277027
0.0277
0.0276981
0.0276969
0.0276961
0.0276957
0.0276955
0.0276954
0.0276954
0.0276955
0.0276957
0.0276959
0.0276961
0.0276962
0.0276963
0.0276964
0.0276963
0.0276962
0.0276959
0.0276955
0.0276949
0.0276942
0.0276932
0.027692
0.0276906
0.0276889
0.027687
0.0276848
0.0276823
0.0276795
0.0276764
0.027673
0.0276693
0.0276653
0.027661
0.0276563
0.0276513
0.027646
0.0276404
0.0276345
0.0276282
0.0276217
0.0276149
0.0276078
0.0276004
0.0275928
0.0275849
0.0275767
0.0275683
0.0275597
0.0275508
0.0275417
0.0275324
0.0275228
0.0275131
0.0275032
0.0274932
0.0274829
0.0274725
0.0274619
0.0274512
0.0274403
0.0274293
0.0274182
0.0274069
0.0273956
0.0273841
0.0273725
0.0273608
0.027349
0.0273372
0.0273253
0.0273132
0.0273012
0.027289
0.0272768
0.0272646
0.0272523
0.02724
0.0272277
0.0272153
0.027203
0.0271907
0.0271784
0.0271664
0.0271542
0.0271426
0.0271307
0.0271202
0.0271081
0.0274985
0.0276427
0.0277155
0.0277422
0.027745
0.027738
0.0277284
0.0277194
0.0277121
0.0277066
0.0277027
0.0277
0.0276981
0.0276969
0.0276961
0.0276957
0.0276955
0.0276954
0.0276954
0.0276956
0.0276957
0.0276959
0.0276961
0.0276962
0.0276963
0.0276964
0.0276963
0.0276962
0.0276959
0.0276955
0.0276949
0.0276942
0.0276932
0.027692
0.0276906
0.027689
0.027687
0.0276848
0.0276824
0.0276796
0.0276765
0.0276731
0.0276694
0.0276653
0.027661
0.0276563
0.0276513
0.027646
0.0276404
0.0276345
0.0276283
0.0276218
0.027615
0.0276079
0.0276005
0.0275928
0.0275849
0.0275768
0.0275684
0.0275597
0.0275508
0.0275417
0.0275324
0.0275229
0.0275132
0.0275033
0.0274932
0.027483
0.0274726
0.027462
0.0274513
0.0274404
0.0274294
0.0274183
0.027407
0.0273957
0.0273842
0.0273726
0.0273609
0.0273492
0.0273373
0.0273254
0.0273134
0.0273013
0.0272891
0.027277
0.0272647
0.0272524
0.0272401
0.0272278
0.0272155
0.0272031
0.0271909
0.0271786
0.0271665
0.0271543
0.0271428
0.0271308
0.0271204
0.0271083
0.0274985
0.0276427
0.0277155
0.0277422
0.027745
0.027738
0.0277284
0.0277194
0.0277121
0.0277066
0.0277027
0.0277
0.0276981
0.0276969
0.0276961
0.0276957
0.0276955
0.0276954
0.0276954
0.0276956
0.0276957
0.0276959
0.0276961
0.0276962
0.0276963
0.0276964
0.0276964
0.0276962
0.0276959
0.0276955
0.027695
0.0276942
0.0276932
0.0276921
0.0276907
0.027689
0.0276871
0.0276849
0.0276824
0.0276796
0.0276765
0.0276731
0.0276694
0.0276654
0.027661
0.0276564
0.0276514
0.0276461
0.0276405
0.0276346
0.0276283
0.0276218
0.027615
0.0276079
0.0276005
0.0275929
0.027585
0.0275768
0.0275684
0.0275598
0.0275509
0.0275418
0.0275325
0.027523
0.0275133
0.0275034
0.0274933
0.027483
0.0274726
0.0274621
0.0274513
0.0274405
0.0274295
0.0274184
0.0274071
0.0273957
0.0273843
0.0273727
0.027361
0.0273493
0.0273374
0.0273255
0.0273135
0.0273014
0.0272893
0.0272771
0.0272648
0.0272526
0.0272403
0.0272279
0.0272156
0.0272033
0.027191
0.0271787
0.0271666
0.0271545
0.0271429
0.0271309
0.0271205
0.0271084
0.0274985
0.0276427
0.0277155
0.0277422
0.027745
0.027738
0.0277284
0.0277194
0.0277121
0.0277066
0.0277027
0.0277
0.0276981
0.0276969
0.0276961
0.0276957
0.0276955
0.0276954
0.0276955
0.0276956
0.0276957
0.0276959
0.0276961
0.0276962
0.0276964
0.0276964
0.0276964
0.0276962
0.027696
0.0276956
0.027695
0.0276942
0.0276933
0.0276921
0.0276907
0.027689
0.0276871
0.0276849
0.0276824
0.0276796
0.0276765
0.0276731
0.0276694
0.0276654
0.0276611
0.0276564
0.0276514
0.0276461
0.0276405
0.0276346
0.0276284
0.0276219
0.0276151
0.027608
0.0276006
0.0275929
0.027585
0.0275769
0.0275685
0.0275598
0.027551
0.0275419
0.0275326
0.0275231
0.0275134
0.0275035
0.0274934
0.0274831
0.0274727
0.0274622
0.0274514
0.0274406
0.0274296
0.0274185
0.0274072
0.0273959
0.0273844
0.0273728
0.0273612
0.0273494
0.0273376
0.0273256
0.0273136
0.0273016
0.0272895
0.0272773
0.0272651
0.0272528
0.0272405
0.0272282
0.0272158
0.0272035
0.0271913
0.027179
0.0271669
0.0271547
0.0271432
0.0271312
0.0271208
0.0271087
0.0274985
0.0276427
0.0277155
0.0277422
0.027745
0.027738
0.0277284
0.0277194
0.0277121
0.0277066
0.0277027
0.0277
0.0276981
0.0276969
0.0276962
0.0276957
0.0276955
0.0276954
0.0276955
0.0276956
0.0276957
0.0276959
0.0276961
0.0276963
0.0276964
0.0276964
0.0276964
0.0276962
0.027696
0.0276956
0.027695
0.0276942
0.0276933
0.0276921
0.0276907
0.027689
0.0276871
0.0276849
0.0276824
0.0276796
0.0276766
0.0276732
0.0276695
0.0276654
0.0276611
0.0276564
0.0276514
0.0276462
0.0276405
0.0276346
0.0276284
0.0276219
0.0276151
0.027608
0.0276006
0.027593
0.0275851
0.0275769
0.0275685
0.0275599
0.027551
0.0275419
0.0275326
0.0275231
0.0275134
0.0275035
0.0274935
0.0274832
0.0274728
0.0274623
0.0274516
0.0274407
0.0274297
0.0274186
0.0274074
0.027396
0.0273846
0.027373
0.0273614
0.0273496
0.0273378
0.0273259
0.0273139
0.0273018
0.0272897
0.0272776
0.0272654
0.0272531
0.0272408
0.0272285
0.0272162
0.0272039
0.0271917
0.0271794
0.0271674
0.0271552
0.0271437
0.0271317
0.0271212
0.0271092
0.0274985
0.0276427
0.0277155
0.0277422
0.027745
0.027738
0.0277284
0.0277194
0.0277121
0.0277066
0.0277027
0.0277
0.0276981
0.0276969
0.0276962
0.0276957
0.0276955
0.0276954
0.0276955
0.0276956
0.0276957
0.0276959
0.0276961
0.0276963
0.0276964
0.0276964
0.0276964
0.0276962
0.027696
0.0276956
0.027695
0.0276942
0.0276933
0.0276921
0.0276907
0.027689
0.0276871
0.0276849
0.0276824
0.0276797
0.0276766
0.0276732
0.0276695
0.0276654
0.0276611
0.0276564
0.0276515
0.0276462
0.0276406
0.0276347
0.0276284
0.0276219
0.0276151
0.027608
0.0276007
0.0275931
0.0275852
0.027577
0.0275686
0.02756
0.0275511
0.0275421
0.0275328
0.0275233
0.0275136
0.0275037
0.0274937
0.0274834
0.0274731
0.0274625
0.0274518
0.027441
0.02743
0.027419
0.0274078
0.0273964
0.027385
0.0273735
0.0273619
0.0273501
0.0273383
0.0273265
0.0273145
0.0273025
0.0272905
0.0272783
0.0272662
0.027254
0.0272417
0.0272295
0.0272172
0.027205
0.0271928
0.0271806
0.0271686
0.0271565
0.027145
0.027133
0.0271226
0.0271106
0.0274985
0.0276427
0.0277155
0.0277422
0.027745
0.027738
0.0277284
0.0277194
0.0277121
0.0277066
0.0277027
0.0277
0.0276981
0.0276969
0.0276961
0.0276957
0.0276955
0.0276954
0.0276955
0.0276956
0.0276957
0.0276959
0.0276961
0.0276962
0.0276963
0.0276964
0.0276964
0.0276962
0.027696
0.0276955
0.027695
0.0276942
0.0276933
0.0276921
0.0276907
0.027689
0.0276871
0.0276849
0.0276824
0.0276796
0.0276765
0.0276731
0.0276694
0.0276654
0.0276611
0.0276564
0.0276515
0.0276462
0.0276406
0.0276347
0.0276285
0.027622
0.0276152
0.0276081
0.0276008
0.0275932
0.0275853
0.0275772
0.0275688
0.0275602
0.0275514
0.0275423
0.0275331
0.0275236
0.027514
0.0275042
0.0274942
0.027484
0.0274737
0.0274632
0.0274526
0.0274418
0.0274309
0.0274199
0.0274087
0.0273975
0.0273862
0.0273747
0.0273632
0.0273516
0.0273399
0.0273281
0.0273162
0.0273043
0.0272924
0.0272804
0.0272683
0.0272562
0.0272441
0.027232
0.0272199
0.0272077
0.0271957
0.0271836
0.0271717
0.0271598
0.0271484
0.0271366
0.0271263
0.0271143
0.0274985
0.0276427
0.0277155
0.0277422
0.027745
0.027738
0.0277284
0.0277194
0.0277121
0.0277066
0.0277027
0.0276999
0.0276981
0.0276969
0.0276961
0.0276957
0.0276954
0.0276954
0.0276954
0.0276955
0.0276957
0.0276958
0.027696
0.0276962
0.0276963
0.0276963
0.0276963
0.0276961
0.0276959
0.0276955
0.0276949
0.0276941
0.0276932
0.027692
0.0276906
0.0276889
0.027687
0.0276848
0.0276823
0.0276796
0.0276765
0.0276731
0.0276694
0.0276654
0.0276611
0.0276565
0.0276515
0.0276463
0.0276407
0.0276349
0.0276287
0.0276223
0.0276155
0.0276085
0.0276012
0.0275937
0.0275859
0.0275779
0.0275696
0.0275611
0.0275524
0.0275434
0.0275343
0.027525
0.0275155
0.0275058
0.0274959
0.0274859
0.0274757
0.0274654
0.0274549
0.0274443
0.0274336
0.0274228
0.0274119
0.0274008
0.0273897
0.0273785
0.0273672
0.0273558
0.0273443
0.0273328
0.0273212
0.0273095
0.0272978
0.0272861
0.0272743
0.0272625
0.0272507
0.0272389
0.0272271
0.0272152
0.0272035
0.0271917
0.0271802
0.0271685
0.0271574
0.0271459
0.0271359
0.0271243
0.0274985
0.0276427
0.0277155
0.0277422
0.027745
0.027738
0.0277284
0.0277194
0.0277121
0.0277066
0.0277026
0.0276999
0.0276981
0.0276968
0.0276961
0.0276956
0.0276954
0.0276953
0.0276953
0.0276954
0.0276956
0.0276958
0.0276959
0.0276961
0.0276962
0.0276962
0.0276962
0.027696
0.0276958
0.0276953
0.0276948
0.027694
0.0276931
0.0276919
0.0276905
0.0276889
0.027687
0.0276848
0.0276824
0.0276796
0.0276766
0.0276733
0.0276697
0.0276657
0.0276615
0.027657
0.0276521
0.027647
0.0276416
0.0276358
0.0276298
0.0276235
0.027617
0.0276102
0.0276031
0.0275958
0.0275882
0.0275804
0.0275724
0.0275641
0.0275557
0.0275471
0.0275382
0.0275292
0.02752
0.0275107
0.0275012
0.0274916
0.0274818
0.0274719
0.0274618
0.0274517
0.0274414
0.027431
0.0274206
0.02741
0.0273994
0.0273886
0.0273778
0.027367
0.027356
0.0273451
0.027334
0.027323
0.0273118
0.0273007
0.0272895
0.0272783
0.0272671
0.0272559
0.0272447
0.0272336
0.0272225
0.0272113
0.0272004
0.0271895
0.027179
0.0271682
0.0271587
0.0271478
0.0274985
0.0276427
0.0277155
0.0277422
0.027745
0.027738
0.0277283
0.0277193
0.027712
0.0277065
0.0277026
0.0276998
0.027698
0.0276968
0.027696
0.0276955
0.0276953
0.0276952
0.0276952
0.0276953
0.0276954
0.0276956
0.0276957
0.0276959
0.0276959
0.027696
0.0276959
0.0276958
0.0276955
0.0276951
0.0276945
0.0276938
0.0276929
0.0276918
0.0276904
0.0276889
0.0276871
0.027685
0.0276827
0.0276801
0.0276773
0.0276741
0.0276707
0.027667
0.027663
0.0276588
0.0276542
0.0276494
0.0276444
0.027639
0.0276334
0.0276276
0.0276215
0.0276152
0.0276086
0.0276018
0.0275948
0.0275876
0.0275802
0.0275726
0.0275648
0.0275569
0.0275488
0.0275405
0.0275321
0.0275236
0.0275149
0.0275061
0.0274971
0.0274881
0.0274789
0.0274697
0.0274604
0.0274509
0.0274414
0.0274319
0.0274222
0.0274125
0.0274027
0.0273929
0.0273831
0.0273732
0.0273632
0.0273532
0.0273432
0.0273332
0.0273232
0.0273131
0.0273031
0.027293
0.027283
0.027273
0.0272631
0.0272532
0.0272435
0.0272337
0.0272244
0.0272148
0.0272064
0.0271967
0.0274985
0.0276426
0.0277155
0.0277422
0.027745
0.0277379
0.0277283
0.0277193
0.027712
0.0277065
0.0277025
0.0276998
0.0276979
0.0276967
0.0276959
0.0276954
0.0276952
0.0276951
0.0276951
0.0276952
0.0276953
0.0276954
0.0276956
0.0276957
0.0276958
0.0276959
0.0276959
0.0276957
0.0276955
0.0276952
0.0276948
0.0276941
0.0276934
0.0276924
0.0276913
0.02769
0.0276885
0.0276867
0.0276847
0.0276826
0.0276801
0.0276775
0.0276746
0.0276715
0.0276682
0.0276646
0.0276608
0.0276567
0.0276525
0.027648
0.0276433
0.0276384
0.0276334
0.0276281
0.0276226
0.0276169
0.0276111
0.0276051
0.027599
0.0275927
0.0275862
0.0275796
0.0275729
0.0275661
0.0275591
0.027552
0.0275449
0.0275376
0.0275302
0.0275227
0.0275152
0.0275076
0.0274999
0.0274921
0.0274843
0.0274764
0.0274685
0.0274606
0.0274525
0.0274445
0.0274364
0.0274283
0.0274202
0.027412
0.0274038
0.0273956
0.0273874
0.0273793
0.0273711
0.0273629
0.0273548
0.0273467
0.0273386
0.0273306
0.0273228
0.0273149
0.0273075
0.0272998
0.0272931
0.0272853
0.0274985
0.0276427
0.0277155
0.0277422
0.027745
0.027738
0.0277283
0.0277193
0.027712
0.0277065
0.0277025
0.0276997
0.0276978
0.0276965
0.0276957
0.0276951
0.0276948
0.0276946
0.0276946
0.0276946
0.0276946
0.0276947
0.0276948
0.0276949
0.027695
0.0276951
0.0276951
0.0276951
0.027695
0.0276948
0.0276946
0.0276942
0.0276937
0.0276931
0.0276924
0.0276916
0.0276906
0.0276895
0.0276882
0.0276868
0.0276852
0.0276835
0.0276816
0.0276796
0.0276773
0.027675