# Probe 0 (44.65 35.42 1)
# Probe 1 (44.65 35.42 3)
# Probe 2 (44.65 35.42 8)
# Probe 3 (52.13 22.51 1)
# Probe 4 (52.13 22.51 3)
# Probe 5 (52.13 22.51 8)
# Probe 6 (57 8.01 1)
# Probe 7 (57 8.01 3)
# Probe 8 (57 8.01 8)
# Probe 9 (56.58 6.95 1)
# Probe 10 (56.58 6.95 3)
# Probe 11 (56.58 6.95 8)
# Probe 12 (53.37 21.56 1)
# Probe 13 (53.37 21.56 3)
# Probe 14 (53.37 21.56 8)
# Probe 15 (45.14 34.46 1)
# Probe 16 (45.14 34.46 3)
# Probe 17 (45.14 34.46 8)
# Probe 18 (34.75 45.17 1)
# Probe 19 (34.75 45.17 3)
# Probe 20 (34.75 45.17 8)
# Probe 21 (121.4 69.72 1)
# Probe 22 (121.4 69.72 3)
# Probe 23 (121.4 69.72 8)
# Probe 24 (133.12 42.09 1)
# Probe 25 (133.12 42.09 3)
# Probe 26 (133.12 42.09 8)
# Probe 27 (139.63 13.08 1)
# Probe 28 (139.63 13.08 3)
# Probe 29 (139.63 13.08 8)
# Probe 30 (138.96 17.06 1)
# Probe 31 (138.96 17.06 3)
# Probe 32 (138.96 17.06 8)
# Probe 33 (132.32 46.47 1)
# Probe 34 (132.32 46.47 3)
# Probe 35 (132.32 46.47 8)
# Probe 36 (118.98 73.05 1)
# Probe 37 (118.98 73.05 3)
# Probe 38 (118.98 73.05 8)
# Probe 39 (100.93 97.02 1)
# Probe 40 (100.93 97.02 3)
# Probe 41 (100.93 97.02 8)
# Probe 42 (378.52 128.83 1)
# Probe 43 (378.52 128.83 3)
# Probe 44 (378.52 128.83 8)
# Probe 45 (393.53 70.57 1)
# Probe 46 (393.53 70.57 3)
# Probe 47 (393.53 70.57 8)
# Probe 48 (399.84 11.15 1)
# Probe 49 (399.84 11.15 3)
# Probe 50 (399.84 11.15 8)
# Probe 51 (397.02 48.75 1)
# Probe 52 (397.02 48.75 3)
# Probe 53 (397.02 48.75 8)
# Probe 54 (385.26 107.55 1)
# Probe 55 (385.26 107.55 3)
# Probe 56 (385.26 107.55 8)
# Probe 57 (364.77 163.67 1)
# Probe 58 (364.77 163.67 3)
# Probe 59 (364.77 163.67 8)
# Probe 60 (336.11 216.58 1)
# Probe 61 (336.11 216.58 3)
# Probe 62 (336.11 216.58 8)
# Probe 63 (797.53 62.27 1)
# Probe 64 (797.53 62.27 3)
# Probe 65 (797.53 62.27 8)
# Probe 66 (799.8 17.7 1)
# Probe 67 (799.8 17.7 3)
# Probe 68 (799.8 17.7 8)
# Probe 69 (794.04 97.5 1)
# Probe 70 (794.04 97.5 3)
# Probe 71 (794.04 97.5 8)
# Probe 72 (780.33 176.31 1)
# Probe 73 (780.33 176.31 3)
# Probe 74 (780.33 176.31 8)
# Probe 75 (758.78 253.36 1)
# Probe 76 (758.78 253.36 3)
# Probe 77 (758.78 253.36 8)
#       Probe             0             1             2             3             4             5             6             7             8             9            10            11            12            13            14            15            16            17            18            19            20            21            22            23            24            25            26            27            28            29            30            31            32            33            34            35            36            37            38            39            40            41            42            43            44            45            46            47            48            49            50            51            52            53            54            55            56            57            58            59            60            61            62            63            64            65            66            67            68            69            70            71            72            73            74            75            76            77
#        Time
            1   6.99429e-08   6.24118e-08   2.52216e-08   7.09037e-07   5.79765e-07   2.18581e-07   9.67907e-05    8.1464e-05   2.27812e-05   9.67907e-05    8.1464e-05   2.27812e-05   7.09037e-07   5.79765e-07   2.18581e-07   6.99429e-08   6.24118e-08   2.52216e-08    6.1106e-09   5.25493e-09   1.56301e-09   1.03939e-14   1.01843e-14    5.9727e-15   1.18907e-12   1.16291e-12   7.47701e-13   1.57867e-09   1.49028e-09   6.91567e-10   1.57867e-09   1.49028e-09   6.91567e-10   1.18907e-12   1.16291e-12   7.47701e-13   1.43805e-15   1.34726e-15   6.55348e-16   3.22928e-17   1.49068e-17   3.70443e-19             0   1.03802e-24   3.37644e-25   2.32572e-24   4.48448e-24   5.09466e-25   1.34761e-22   1.63365e-22   2.60171e-22   3.15702e-24   8.34457e-24   4.21325e-24             0   9.90659e-25   3.48239e-25             0   4.07337e-25   6.09112e-26   2.39142e-25   2.06596e-25   1.33447e-28             0   5.95661e-33   1.99923e-34             0   2.56347e-33   2.97644e-34             0   5.07666e-33    2.3449e-34   1.82193e-33   3.59865e-33             0             0   1.28252e-33   8.19142e-36
            2   1.42119e-07   1.20985e-07   7.04101e-08   2.51498e-06   1.49718e-06   7.22323e-07   0.000674375   0.000475015   9.67809e-05   0.000674375   0.000475015   9.67809e-05   2.51498e-06   1.49718e-06   7.22323e-07   1.42119e-07   1.20985e-07   7.04101e-08   7.59037e-09   6.54089e-09   3.38644e-09   2.33463e-14   2.50771e-14   2.47143e-14   3.19099e-12     3.107e-12   2.96131e-12   6.39374e-09    5.2243e-09   2.78318e-09   6.39374e-09    5.2243e-09   2.78318e-09   3.19099e-12     3.107e-12   2.96131e-12   2.05012e-15   1.95541e-15   2.46591e-15   3.06658e-17   1.38066e-17   5.12369e-18   1.22378e-26   1.55981e-24   6.14808e-25   4.04836e-24   6.98095e-24   1.08374e-24    9.5414e-22   1.26224e-21    2.2938e-21   1.10574e-23   2.05862e-23   2.66284e-23   9.99317e-27   1.51154e-24    6.5288e-25   7.54941e-27     5.835e-25   1.38905e-25   2.91635e-25   2.32893e-25   9.99641e-27   1.10544e-34    7.4188e-33   8.85317e-34   4.98184e-35   3.69684e-33   7.67091e-34   2.48333e-34   7.82379e-33   8.22793e-34   2.12586e-33    4.2663e-33    2.2489e-34   5.47212e-35   1.46448e-33   1.11007e-34
            3    1.7742e-05   4.00775e-07   1.40496e-07   6.75921e-05   5.20981e-06   1.64838e-06    0.00233357     0.0016295   0.000227225    0.00233357     0.0016295   0.000227225   6.75921e-05   5.20981e-06   1.64838e-06    1.7742e-05   4.00775e-07   1.40496e-07   5.18062e-07   9.36977e-09    5.6127e-09   4.48157e-14   4.69405e-14    7.0502e-14   1.08017e-11   8.95974e-12   1.08978e-11   3.78519e-08   2.24936e-08   1.12352e-08   3.78519e-08   2.24936e-08   1.12352e-08   1.08017e-11   8.95974e-12   1.08978e-11    3.3606e-15   3.14099e-15   7.76552e-15   2.87594e-17   1.34746e-17   1.87909e-17   6.11791e-26   2.29825e-24   1.04606e-24   7.15524e-24   1.09548e-23   2.40362e-24   7.33646e-21    9.4342e-21   1.47363e-20   4.54274e-23   7.47398e-23   1.50696e-22   5.16126e-26   2.28106e-24   1.13167e-24   3.46376e-26   8.37479e-25   2.50386e-25   3.94151e-25    2.9054e-25   2.04444e-26   3.96965e-34   9.84516e-33   1.71565e-33   2.24696e-34   5.63528e-33   1.44513e-33   8.62085e-34   1.08715e-32   1.52101e-33   2.51341e-33   5.09556e-33   4.62002e-34   1.52807e-34   1.58687e-33   1.89421e-34
            4   0.000142516   2.40596e-06   2.11741e-07   0.000425559    1.4269e-05   2.85302e-06    0.00560724     0.0039638   0.000421639    0.00560724     0.0039638   0.000421639   0.000425559    1.4269e-05   2.85302e-06   0.000142516   2.40596e-06   2.11741e-07   1.92978e-05   1.28425e-07   7.99441e-09   8.01502e-14   7.70225e-14   1.98723e-13   9.15394e-11   2.81191e-11   3.37665e-11   2.06633e-07   9.75038e-08   4.03005e-08   2.06633e-07   9.75038e-08   4.03005e-08   9.15394e-11   2.81191e-11   3.37665e-11   5.41265e-15   5.97538e-15   2.19953e-14   2.65039e-17   1.46021e-17   5.43615e-17   1.96503e-25   3.40131e-24   1.67525e-24   1.28627e-23   1.75021e-23    5.2411e-24   5.61611e-20   6.40618e-20    7.8199e-20   2.01796e-22   3.39697e-22   7.55972e-22   1.68874e-25   3.43169e-24   1.96426e-24   9.99876e-26   1.19739e-24   3.71877e-25   5.26817e-25   3.64827e-25   3.29632e-26   9.74714e-34   1.30185e-32   2.84292e-33   6.21817e-34    8.2708e-33   2.45341e-33   1.85887e-33   1.40197e-32   2.41778e-33   3.09638e-33   5.92602e-33   7.60748e-34    2.9942e-34   1.79388e-33   2.79092e-34
            5   0.000475728    1.0946e-05   4.18348e-07    0.00128316   0.000289408   6.26464e-06    0.00938091    0.00817797   0.000773622    0.00938091    0.00817797   0.000773622    0.00128316   0.000289408   6.26464e-06   0.000475728    1.0946e-05   4.18348e-07   7.90852e-05    6.0212e-07   1.51582e-08   2.13785e-13   1.82891e-13   5.34622e-13   7.93422e-10   1.47059e-10   1.07648e-10   9.01082e-07   3.94628e-07   1.30439e-07   9.01082e-07   3.94628e-07   1.30439e-07   7.93422e-10   1.47059e-10   1.07648e-10   8.64064e-15   1.11604e-14   5.64762e-14   2.40237e-17   1.80989e-17   1.39815e-16   5.03334e-25   5.06415e-24   2.62058e-24   2.34801e-23   2.90922e-23   1.28355e-23   3.38257e-19   3.83247e-19   3.83729e-19   8.73409e-22   1.61312e-21   3.46744e-21   4.47744e-25   5.20102e-24   3.26935e-24   2.20486e-25   1.66349e-24   5.20745e-25   6.82342e-25   4.51035e-25   4.85972e-26   1.93096e-33   1.72537e-32   4.33913e-33   1.36241e-33   1.19374e-32   3.84618e-33   3.30574e-33   1.71418e-32   3.55622e-33   4.00022e-33   6.91556e-33   1.18151e-33   4.92314e-34    2.1786e-33   4.15529e-34
            6   0.000933617   8.84166e-05   7.69757e-07    0.00276152    0.00108171   8.71829e-06     0.0138409     0.0127288    0.00125359     0.0138409     0.0127288    0.00125359    0.00276152    0.00108171   8.71829e-06   0.000933617   8.84166e-05   7.69757e-07   0.000159187   2.28755e-06   2.85827e-08   8.06495e-13   4.88349e-13   1.52853e-12   4.95071e-09   6.77099e-10   2.66786e-10   3.21176e-06   1.43066e-06   3.79403e-07   3.21176e-06   1.43066e-06   3.79403e-07   4.95071e-09   6.77099e-10   2.66786e-10   1.67629e-14   2.25594e-14   1.39908e-13   2.17432e-17   2.58406e-17   3.25171e-16   1.12016e-24    7.5616e-24   3.99577e-24   4.33628e-23   5.17888e-23   4.01529e-23   1.76207e-18   2.06704e-18     1.859e-18   3.52859e-21   7.28446e-21   1.61427e-20   1.05044e-24   7.97492e-24   5.25542e-24   3.98573e-25   2.15708e-24   7.15985e-25    8.6225e-25   5.51031e-25   6.84378e-26   3.32875e-33   2.17416e-32     6.097e-33   2.57463e-33   1.56616e-32   5.59655e-33   5.36249e-33   2.01071e-32   4.93469e-33   5.37525e-33   8.64418e-33   1.70299e-33   6.99661e-34   2.63469e-33   5.85171e-34
            7      0.001453   0.000126351   1.36962e-06    0.00469472    0.00247976   1.20944e-05     0.0186342     0.0175292    0.00301008     0.0186342     0.0175292    0.00301008    0.00469472    0.00247976   1.20944e-05      0.001453   0.000126351   1.36962e-06   0.000227801   3.67722e-06   5.15735e-08   3.30634e-12   1.63759e-12   3.86022e-12   1.91162e-08   3.13306e-09   7.17887e-10   9.69315e-06   4.56824e-06   1.00168e-06   9.69315e-06   4.56824e-06   1.00168e-06   1.91162e-08   3.13306e-09   7.17887e-10   3.63247e-14   5.14344e-14   3.12682e-13   2.03449e-17   4.06799e-17   6.57284e-16   2.32633e-24   1.14652e-23    6.0045e-24   8.15855e-23   1.03811e-22   1.40659e-22   8.93323e-18   1.02393e-17   8.06661e-18   1.47794e-20   3.19578e-20   6.69553e-20   2.32534e-24   1.25993e-23   8.40988e-24   6.45378e-25   2.64261e-24   9.77209e-25   1.07341e-24    6.7023e-25   9.38813e-26   5.35992e-33   2.57038e-32   8.14319e-33   4.48985e-33   1.96452e-32   7.65393e-33   8.30899e-33   2.35526e-32   6.50459e-33   7.36267e-33    1.0968e-32   2.19471e-33    1.0069e-33   3.17412e-33   7.91557e-34
            8    0.00199481   0.000149376   2.26564e-06    0.00694168    0.00447736   1.74781e-05     0.0238308      0.022686    0.00587739     0.0238308      0.022686    0.00587739    0.00694168    0.00447736   1.74781e-05    0.00199481   0.000149376   2.26564e-06   0.000280503   5.22245e-06   8.69708e-08   1.19671e-11   5.70174e-12   9.16828e-12   4.92938e-08   1.19624e-08   1.90573e-09   2.55324e-05   1.28876e-05   2.43201e-06   2.55324e-05   1.28876e-05   2.43201e-06   4.92938e-08   1.19624e-08   1.90573e-09   9.21224e-14   1.22633e-13   6.56206e-13   2.00386e-17   6.77326e-17   1.24341e-15   4.50971e-24   1.73837e-23   8.93476e-24   1.59702e-22    2.4105e-22   5.11625e-22   3.80743e-17   4.68998e-17   3.67698e-17   6.27731e-20   1.33472e-19   2.68681e-19   4.98258e-24   2.04624e-23   1.37366e-23   9.23036e-25   3.07462e-24   1.33107e-24   1.32361e-24   8.14029e-25   1.26639e-25   8.38015e-33   3.00943e-32   1.04881e-32   7.53354e-33   2.46315e-32   1.03234e-32   1.24894e-32   2.79543e-32   8.42657e-33   9.83353e-33   1.30259e-32   2.83123e-33   1.52037e-33    3.8174e-33   1.04639e-33
            9    0.00252078   0.000190095   3.55229e-06    0.00930189    0.00684953   2.63144e-05     0.0293312     0.0279877     0.0095982     0.0293312     0.0279877     0.0095982    0.00930189    0.00684953   2.63144e-05    0.00252078   0.000190095   3.55229e-06    0.00030927   6.49024e-06    1.3686e-07   3.76228e-11   1.87476e-11   2.12896e-11   1.60069e-07   3.77802e-08    4.7544e-09   6.01187e-05   3.25145e-05   5.48322e-06   6.01187e-05   3.25145e-05   5.48322e-06   1.60069e-07   3.77802e-08    4.7544e-09   2.12271e-13   2.93513e-13   1.23339e-12   2.12378e-17   1.15572e-16   2.22993e-15   8.17002e-24   2.64185e-23   1.32739e-23   3.31178e-22   6.45097e-22    1.8438e-21   1.95515e-16   2.08129e-16   1.16282e-16   2.84606e-19   5.36095e-19   1.04577e-18   1.02884e-23   3.37002e-23   2.35379e-23    1.3646e-24   4.04554e-24   1.81377e-24   1.62588e-24   9.92104e-25   1.68624e-25   1.29478e-32   3.39628e-32   1.28352e-32   1.20714e-32   2.96171e-32   1.32275e-32   1.80476e-32   3.19731e-32   1.04264e-32   1.26311e-32   1.47676e-32   3.98667e-33   2.18286e-33   4.58675e-33   1.36581e-33
           10    0.00295752   0.000268525   5.40063e-06      0.011484    0.00950933   4.07355e-05     0.0351043     0.0334688      0.013788     0.0351043     0.0334688      0.013788      0.011484    0.00950933   4.07355e-05    0.00295752   0.000268525   5.40063e-06   0.000302651   8.27233e-06   2.04126e-07   1.04012e-10   5.62957e-11   4.87879e-11   4.31098e-07   8.47251e-08   1.15315e-08   0.000128914   7.44114e-05   1.15535e-05   0.000128914   7.44114e-05   1.15535e-05   4.31098e-07   8.47251e-08   1.15315e-08   4.23353e-13   6.73798e-13   2.39392e-12    2.4443e-17   1.98391e-16   3.82318e-15   1.42166e-23   3.69746e-23   1.98625e-23   7.46751e-22   1.96961e-21   6.44485e-21   8.26043e-16   8.74459e-16    4.5666e-16   1.14526e-18   2.17616e-18   3.99901e-18   2.16815e-23   5.95646e-23   4.38217e-23   2.20755e-24   5.41584e-24   2.47628e-24   1.98622e-24   1.21129e-24    2.2248e-25   1.92765e-32   4.05376e-32   1.68491e-32   1.83496e-32   3.84098e-32   1.86828e-32   2.48669e-32   3.87956e-32   1.37946e-32    1.5532e-32   1.85139e-32   5.64903e-33   2.99082e-33   5.51684e-33    1.7699e-33
           11    0.00321491   0.000389745   8.05684e-06      0.013027     0.0118002   6.55269e-05     0.0411059     0.0390703     0.0179994     0.0411059     0.0390703     0.0179994      0.013027     0.0118002   6.55269e-05    0.00321491   0.000389745   8.05684e-06   0.000254072   9.78728e-06   2.95187e-07    2.6126e-10   1.52897e-10   1.06268e-10   1.03127e-06    2.1942e-07   2.66663e-08   0.000255398   0.000156528   2.28573e-05   0.000255398   0.000156528   2.28573e-05   1.03127e-06    2.1942e-07   2.66663e-08   9.02484e-13   1.70394e-12   4.75788e-12    3.1009e-17   3.50385e-16    6.3565e-15   2.19207e-23   4.68678e-23   3.01476e-23   1.79872e-21   6.18097e-21   2.16229e-20   3.08304e-15   3.11313e-15   1.63867e-15   5.72353e-18   7.80323e-18   1.44971e-17   4.24025e-23    9.8626e-23   9.08435e-23   3.41036e-24   7.18461e-24   3.37907e-24   2.43758e-24   1.48555e-24   2.89736e-25   2.72549e-32   5.14637e-32   2.49413e-32   2.74193e-32   5.70001e-32   2.96842e-32   3.32966e-32   5.20742e-32   2.04243e-32   1.90237e-32   2.38765e-32   7.91659e-33   3.98149e-33   6.64727e-33   2.28365e-33
           12    0.00336195   0.000541516   1.18432e-05     0.0139904     0.0130836   0.000109526     0.0472061     0.0446794     0.0221339     0.0472061     0.0446794     0.0221339     0.0139904     0.0130836   0.000109526    0.00336195   0.000541516   1.18432e-05   0.000188403   1.12766e-05   4.07476e-07   5.47364e-10   3.18721e-10   2.02318e-10   2.25318e-06   5.02486e-07   5.95665e-08   0.000472778     0.0003061   4.26328e-05   0.000472778     0.0003061   4.26328e-05   2.25318e-06   5.02486e-07   5.95665e-08   2.06185e-12   3.85377e-12    8.8948e-12   4.40279e-17   6.26472e-16   1.04092e-14   3.05526e-23   6.80563e-23   4.66096e-23   4.74091e-21   1.87332e-20   6.95989e-20   1.06172e-14   1.02804e-14   5.50041e-15   1.76366e-17   2.53796e-17   4.59316e-17   7.26396e-23    1.3976e-22   2.09134e-22   4.99308e-24   9.45949e-24   4.61542e-24   2.91993e-24   1.76925e-24   3.71276e-25   3.77926e-32   7.24021e-32   3.68012e-32   3.86416e-32   8.50392e-32    4.6533e-32   4.19506e-32   7.10762e-32   2.98706e-32    2.2944e-32   3.09702e-32   1.10045e-32   5.20497e-33   8.02817e-33   2.93878e-33
           13    0.00346334   0.000690551   1.69504e-05       0.01469     0.0137524   0.000187235     0.0532113     0.0501036     0.0261034     0.0532113     0.0501036     0.0261034       0.01469     0.0137524   0.000187235    0.00346334   0.000690551   1.69504e-05    0.00012799    1.2599e-05   5.35347e-07   9.01914e-10   5.76102e-10   3.54193e-10   4.57039e-06   1.05863e-06   1.19023e-07   0.000825044   0.000561674   7.52527e-05   0.000825044   0.000561674   7.52527e-05   4.57039e-06   1.05863e-06   1.19023e-07   4.34496e-12   8.54855e-12     1.633e-11   6.79367e-17   1.13157e-15    1.6776e-14   4.67364e-23   1.02574e-22   7.36306e-23   1.25069e-20   5.32963e-20   2.15137e-19   3.13154e-14   2.46046e-14   1.73278e-14   6.34006e-17   8.41284e-17   1.15166e-16   1.19845e-22    2.4354e-22   5.19472e-22   7.06066e-24   1.24076e-23   6.30514e-24   3.39822e-24   2.06302e-24   4.69397e-25   5.02055e-32   1.01329e-31    5.3384e-32   5.96524e-32   1.26727e-31    7.3598e-32    5.6589e-32   9.63275e-32   4.26738e-32   3.10823e-32   4.02296e-32   1.52571e-32   6.72811e-33   9.72581e-33   3.77638e-33
           14    0.00347205   0.000842499   2.32779e-05     0.0153825     0.0142056   0.000321471     0.0588944     0.0550842     0.0297396     0.0588944     0.0550842     0.0297396     0.0153825     0.0142056   0.000321471    0.00347205   0.000842499   2.32779e-05   8.75354e-05    1.2363e-05   6.22891e-07   1.65806e-09   1.25518e-09   6.70132e-10   8.70884e-06    2.0822e-06   2.17471e-07      0.001367   0.000974292   0.000126136      0.001367   0.000974292   0.000126136   8.70884e-06    2.0822e-06   2.17471e-07   8.69492e-12   1.78742e-11   2.94986e-11   1.12956e-16   2.03202e-15   2.64467e-14   8.26249e-23   1.57421e-22   1.19355e-22    3.2661e-20   1.44056e-19   6.41009e-19   8.54296e-14   7.23187e-14   5.15677e-14   1.86601e-16   2.15671e-16   3.62924e-16   1.83076e-22   4.63587e-22   1.34053e-21   9.78311e-24   1.62831e-23   8.61805e-24   3.83471e-24   2.33416e-24   5.89342e-25   7.60427e-32   1.40087e-31   7.68023e-32    1.0835e-31   1.97049e-31   1.25184e-31   8.39809e-32   1.29538e-31   6.02307e-32   4.25177e-32   5.24684e-32   2.11918e-32   8.64106e-33   1.18292e-32   4.85039e-33
           15    0.00334141   0.000959153   3.13671e-05     0.0161614     0.0146092   0.000522549     0.0640574     0.0593686     0.0331234     0.0640574     0.0593686     0.0331234     0.0161614     0.0146092   0.000522549    0.00334141   0.000959153   3.13671e-05   6.08755e-05   1.16024e-05   6.77105e-07   3.48697e-09   2.54049e-09     1.231e-09    1.5734e-05     3.862e-06   3.98236e-07    0.00216289      0.001607   0.000201351    0.00216289      0.001607   0.000201351    1.5734e-05     3.862e-06   3.98236e-07   1.68394e-11   3.51572e-11   4.91441e-11   1.93692e-16   3.55092e-15   4.06726e-14   1.40501e-22   2.43368e-22   1.99994e-22   8.00561e-20   4.15528e-19   1.90184e-18   2.05292e-13   1.97789e-13   1.46448e-13   5.57781e-16   7.06921e-16   1.07963e-15   3.21879e-22   9.52682e-22   3.49219e-21   1.34044e-23   2.14055e-23   1.17718e-23   4.28637e-24   2.62891e-24   7.38757e-25   1.14476e-31    1.9317e-31   1.10425e-31   2.15125e-31   3.48318e-31   2.54618e-31   1.22318e-31   1.73967e-31    8.4719e-32   5.79372e-32   6.89795e-32   2.95741e-32   1.10653e-32   1.44578e-32   6.23193e-33
           16    0.00306184   0.000998813   3.76597e-05     0.0169702     0.0149038   0.000773356     0.0684873     0.0627992     0.0359091     0.0684873     0.0627992     0.0359091     0.0169702     0.0149038   0.000773356    0.00306184   0.000998813   3.76597e-05   4.30704e-05   1.07731e-05   5.96922e-07    6.9355e-09   4.79757e-09   2.17919e-09   2.71685e-05   6.81244e-06   7.03024e-07    0.00328343    0.00253109   0.000306834    0.00328343    0.00253109   0.000306834   2.71685e-05   6.81244e-06   7.03024e-07   3.26153e-11   6.53885e-11   7.95138e-11   3.40082e-16   6.02311e-15   6.10504e-14    2.3083e-22   3.76431e-22   3.49649e-22   1.80437e-19   1.20214e-18   5.15048e-18   4.95741e-13   5.51603e-13   3.99979e-13   1.59754e-15   2.25028e-15   3.09142e-15   6.61603e-22   2.07765e-21    9.0369e-21   1.82275e-23   2.82089e-23   1.60303e-23   4.68812e-24   2.90731e-24   9.28259e-25     1.691e-31   2.67477e-31   1.59409e-31   5.11507e-31   7.80534e-31   6.74155e-31   1.74481e-31   2.34602e-31    1.1932e-31   7.89805e-32   9.16724e-32   4.15273e-32    1.4163e-32   1.77701e-32   8.01466e-33
           17    0.00266912   0.000939542    4.0196e-05     0.0176578     0.0149468    0.00106059     0.0721239     0.0653513     0.0378199     0.0721239     0.0653513     0.0378199     0.0176578     0.0149468    0.00106059    0.00266912   0.000939542    4.0196e-05    3.1124e-05   9.91352e-06   6.54103e-07   1.32439e-08   8.59866e-09    3.6631e-09   4.51257e-05   1.15144e-05   1.19345e-06    0.00480118    0.00381917   0.000447373    0.00480118    0.00381917   0.000447373   4.51257e-05   1.15144e-05   1.19345e-06    6.4559e-11   1.16191e-10   1.25458e-10   6.12845e-16   9.86451e-15   8.93148e-14   3.71296e-22   5.84502e-22   6.42666e-22    5.1086e-19   3.37186e-18   1.35034e-17   1.06354e-12   1.48437e-12   1.05784e-12   3.93953e-15   6.93196e-15   8.54871e-15   1.31778e-21   4.74048e-21    2.3031e-20   2.46192e-23   3.71527e-23   2.17139e-23   5.37409e-24   3.39731e-24    1.1718e-24   2.47241e-31   3.73144e-31    2.3211e-31   1.50275e-30   2.27751e-30   2.23454e-30   2.46244e-31   3.18475e-31   1.68582e-31   1.08229e-31   1.23319e-31   5.86906e-32   1.81475e-32   2.19732e-32   1.03213e-32
           18    0.00216667   0.000788278   3.88751e-05     0.0181641     0.0147433    0.00139354     0.0750243     0.0671283     0.0387683     0.0750243     0.0671283     0.0387683     0.0181641     0.0147433    0.00139354    0.00216667   0.000788278   3.88751e-05    2.3215e-05   8.27231e-06   4.72935e-07   2.44481e-08   1.46807e-08   5.81945e-09   7.25519e-05   1.87681e-05   1.95585e-06    0.00678388     0.0055341   0.000625568    0.00678388     0.0055341   0.000625568   7.25519e-05   1.87681e-05   1.95585e-06    1.2807e-10   1.95241e-10   1.92835e-10   1.08049e-15   1.55756e-14   1.27326e-13   5.83828e-22   9.10208e-22   1.24354e-21   1.60731e-18   8.22269e-18   3.62594e-17   2.95255e-12   3.89041e-12   2.71922e-12   1.26377e-14   2.02823e-14   2.27983e-14   2.63568e-21   1.10841e-20   5.75747e-20   3.30851e-23   4.89995e-23   2.92089e-23    6.7078e-24   4.29763e-24   1.48285e-24   3.60155e-31   5.25673e-31   3.44014e-31   5.09113e-30   7.87176e-30   8.27068e-30   3.46294e-31   4.35326e-31   2.39001e-31   1.49524e-31   1.67925e-31   8.34438e-32   2.32959e-32   2.73345e-32    1.3312e-32
           19    0.00166833   0.000602172   3.52705e-05     0.0184793      0.014339    0.00174644     0.0773522     0.0683217     0.0389526     0.0773522     0.0683217     0.0389526     0.0184793      0.014339    0.00174644    0.00166833   0.000602172   3.52705e-05    1.7797e-05   6.67608e-06   5.27548e-07   4.36482e-08   2.41149e-08   8.92422e-09   0.000113411   2.97411e-05   3.10878e-06    0.00928558    0.00771385     0.0008407    0.00928558    0.00771385     0.0008407   0.000113411   2.97411e-05   3.10878e-06   2.48163e-10   3.10331e-10   2.87111e-10   1.91764e-15   2.34734e-14   1.76723e-13   9.09724e-22    1.4407e-21   2.51561e-21   4.39671e-18   2.09329e-17   7.46758e-17   7.58418e-12   9.81061e-12   6.81162e-12    3.7269e-14   5.67332e-14   5.85575e-14   5.43647e-21   2.62517e-20   1.40457e-19    4.4012e-23   6.43169e-23   3.89832e-23   8.42485e-24   5.44462e-24   1.85662e-24   5.25137e-31   7.51324e-31   5.30091e-31   1.82577e-29   2.89681e-29   3.14401e-29    4.8665e-31   5.98704e-31    3.3992e-31   2.08451e-31   2.31248e-31   1.19219e-31   2.99633e-32   3.41962e-32   1.71945e-32
           20    0.00124361   0.000458757   3.12378e-05      0.018637     0.0137723    0.00200504     0.0792779     0.0691623     0.0385591     0.0792779     0.0691623     0.0385591      0.018637     0.0137723    0.00200504    0.00124361   0.000458757   3.12378e-05   1.41088e-05   5.13958e-06   5.23649e-07   7.54573e-08   3.81663e-08   1.32766e-08   0.000173334    4.6026e-05   4.80557e-06     0.0123311     0.0103533    0.00108947     0.0123311     0.0103533    0.00108947   0.000173334    4.6026e-05   4.80557e-06   4.64358e-10   4.74118e-10   4.15513e-10   3.32175e-15   3.40551e-14   2.38809e-13   1.38473e-21   2.33002e-21   5.24896e-21   1.23592e-17   5.02465e-17   1.73011e-16   1.88407e-11   2.46299e-11   1.66275e-11   1.00901e-13   1.49917e-13   1.44949e-13   1.15056e-20   6.21404e-20   3.35216e-19   5.65402e-23   8.15046e-23   5.16207e-23   1.04342e-23   6.80138e-24   2.31447e-24   7.71133e-31    1.1029e-30   8.86082e-31    6.5919e-29   1.07073e-28   1.18142e-28    6.8401e-31   8.27612e-31   4.84981e-31   2.93049e-31   3.21487e-31   1.70932e-31   3.86007e-32   4.29941e-32   2.22383e-32
           21   0.000992716   0.000354932   2.68015e-05     0.0186757      0.013127    0.00204113     0.0811286     0.0698782     0.0378582     0.0811286     0.0698782     0.0378582     0.0186757      0.013127    0.00204113   0.000992716   0.000354932   2.68015e-05    1.1898e-05   3.80219e-06   4.39031e-07   1.25514e-07   5.72954e-08   1.89282e-08   0.000259447   6.98963e-05   7.24522e-06     0.0158864     0.0133951    0.00136751     0.0158864     0.0133951    0.00136751   0.000259447   6.98963e-05   7.24522e-06   8.21643e-10   7.04952e-10   5.95618e-10   5.49291e-15   4.75745e-14   3.13206e-13   2.12599e-21   3.91569e-21   1.11384e-20   2.96356e-17   1.33309e-16   4.15432e-16   4.49124e-11   5.87639e-11   3.95044e-11   2.76477e-13   3.83064e-13   3.46976e-13   2.52076e-20    1.4679e-19   7.74657e-19   6.97809e-23   1.01358e-22   6.77863e-23   1.27244e-23   8.34712e-24   2.85577e-24   1.15459e-30   1.70995e-30   1.70777e-30   2.34311e-28   3.88247e-28     4.327e-28   9.61682e-31   1.14903e-30   6.94686e-31   4.14762e-31   4.50219e-31   2.45568e-31   4.97781e-32   5.42813e-32   2.87918e-32
           22   0.000820658   0.000279036    2.2573e-05     0.0186692     0.0124579    0.00179513     0.0831088     0.0706619     0.0369541     0.0831088     0.0706619     0.0369541     0.0186692     0.0124579    0.00179513   0.000820658   0.000279036    2.2573e-05   9.47085e-06   2.34229e-06   3.67394e-07   2.04059e-07   8.27956e-08   2.66373e-08   0.000382374   0.000105214   1.07173e-05      0.019838     0.0167261    0.00167297      0.019838     0.0167261    0.00167297   0.000382374   0.000105214   1.07173e-05   1.36333e-09   1.03041e-09   8.32371e-10   8.90066e-15   6.38591e-14    3.9823e-13   3.11799e-21   6.67216e-21   2.37852e-20   7.01679e-17   3.15301e-16   9.71152e-16   1.02006e-10   1.33976e-10   9.13879e-11   6.77462e-13   9.42098e-13   8.05129e-13   5.56861e-20   3.48638e-19   1.74846e-18   8.47578e-23   1.23719e-22   8.83202e-23    1.5307e-23   1.00694e-23   3.49034e-24   1.80816e-30   2.94236e-30   3.95529e-30   8.12403e-28    1.3696e-27   1.53796e-27   1.35249e-30   1.60187e-30   1.00162e-30    5.8972e-31    6.3365e-31   3.52988e-31   6.42144e-32   6.87612e-32   3.73059e-32
           23   0.000703255   0.000228159   1.89762e-05     0.0187258     0.0118065    0.00139977     0.0853838     0.0716487     0.0358452     0.0853838     0.0716487     0.0358452     0.0187258     0.0118065    0.00139977   0.000703255   0.000228159   1.89762e-05   7.39689e-06   1.33468e-06   2.20102e-07   3.14999e-07   1.16076e-07   3.69224e-08   0.000554641   0.000156917   1.55816e-05     0.0240375     0.0201683     0.0020107     0.0240375     0.0201683     0.0020107   0.000554641   0.000156917   1.55816e-05   2.07154e-09   1.48011e-09   1.12957e-09   1.26991e-14    8.1948e-14   4.87904e-13   4.48938e-21   1.15842e-20   5.06358e-20   1.61211e-16    7.5112e-16   2.20875e-15   2.28801e-10   2.94991e-10    2.0662e-10   1.70712e-12   2.26647e-12   1.81875e-12   1.24236e-19   7.98001e-19   3.96337e-18   9.82528e-23   1.50706e-22   1.14284e-22   1.82083e-23   1.19822e-23   4.23607e-24   3.09432e-30   5.94059e-30   1.07686e-29   2.73773e-27   4.68887e-27   5.30103e-27   1.90323e-30   2.24388e-30   1.46294e-30   8.40443e-31   8.94284e-31   5.07011e-31   8.28166e-32   8.73301e-32    4.8365e-32
           24   0.000667438   0.000190345   1.54844e-05     0.0189964     0.0111899    0.00115015     0.0880683     0.0729079     0.0345675     0.0880683     0.0729079     0.0345675     0.0189964     0.0111899    0.00115015   0.000667438   0.000190345   1.54844e-05    5.7587e-06   9.63509e-07   2.24997e-07    4.5761e-07   1.59976e-07   5.04113e-08   0.000793981   0.000234423   2.23162e-05     0.0282923     0.0235405    0.00239279     0.0282923     0.0235405    0.00239279   0.000793981   0.000234423   2.23162e-05   3.02672e-09   2.08468e-09    1.4875e-09   1.77777e-14   9.93615e-14   5.70871e-13   6.35428e-21   2.07431e-20   1.07228e-19   3.95496e-16   1.76578e-15   4.90232e-15   4.46209e-10   6.31696e-10     4.535e-10   4.06946e-12   5.24128e-12   4.00715e-12   2.53533e-19   1.76235e-18   8.65188e-18   1.18701e-22    1.8263e-22   1.47114e-22   2.14449e-23   1.41095e-23   5.04847e-24   6.08838e-30   1.43043e-29   3.22935e-29   8.95877e-27   1.55752e-26   1.77279e-26   2.68191e-30   3.16538e-30   2.19369e-30   1.19809e-30   1.26316e-30   7.26899e-31   1.06733e-31   1.11134e-31   6.27265e-32