# Probe 0 (44.65 35.42 1)
# Probe 1 (44.65 35.42 3)
# Probe 2 (44.65 35.42 8)
# Probe 3 (52.13 22.51 1)
# Probe 4 (52.13 22.51 3)
# Probe 5 (52.13 22.51 8)
# Probe 6 (57 8.01 1)
# Probe 7 (57 8.01 3)
# Probe 8 (57 8.01 8)
# Probe 9 (56.58 6.95 1)
# Probe 10 (56.58 6.95 3)
# Probe 11 (56.58 6.95 8)
# Probe 12 (53.37 21.56 1)
# Probe 13 (53.37 21.56 3)
# Probe 14 (53.37 21.56 8)
# Probe 15 (45.14 34.46 1)
# Probe 16 (45.14 34.46 3)
# Probe 17 (45.14 34.46 8)
# Probe 18 (34.75 45.17 1)
# Probe 19 (34.75 45.17 3)
# Probe 20 (34.75 45.17 8)
# Probe 21 (121.4 69.72 1)
# Probe 22 (121.4 69.72 3)
# Probe 23 (121.4 69.72 8)
# Probe 24 (133.12 42.09 1)
# Probe 25 (133.12 42.09 3)
# Probe 26 (133.12 42.09 8)
# Probe 27 (139.63 13.08 1)
# Probe 28 (139.63 13.08 3)
# Probe 29 (139.63 13.08 8)
# Probe 30 (138.96 17.06 1)
# Probe 31 (138.96 17.06 3)
# Probe 32 (138.96 17.06 8)
# Probe 33 (132.32 46.47 1)
# Probe 34 (132.32 46.47 3)
# Probe 35 (132.32 46.47 8)
# Probe 36 (118.98 73.05 1)
# Probe 37 (118.98 73.05 3)
# Probe 38 (118.98 73.05 8)
# Probe 39 (100.93 97.02 1)
# Probe 40 (100.93 97.02 3)
# Probe 41 (100.93 97.02 8)
# Probe 42 (378.52 128.83 1)
# Probe 43 (378.52 128.83 3)
# Probe 44 (378.52 128.83 8)
# Probe 45 (393.53 70.57 1)
# Probe 46 (393.53 70.57 3)
# Probe 47 (393.53 70.57 8)
# Probe 48 (399.84 11.15 1)
# Probe 49 (399.84 11.15 3)
# Probe 50 (399.84 11.15 8)
# Probe 51 (397.02 48.75 1)
# Probe 52 (397.02 48.75 3)
# Probe 53 (397.02 48.75 8)
# Probe 54 (385.26 107.55 1)
# Probe 55 (385.26 107.55 3)
# Probe 56 (385.26 107.55 8)
# Probe 57 (364.77 163.67 1)
# Probe 58 (364.77 163.67 3)
# Probe 59 (364.77 163.67 8)
# Probe 60 (336.11 216.58 1)
# Probe 61 (336.11 216.58 3)
# Probe 62 (336.11 216.58 8)
# Probe 63 (797.53 62.27 1)
# Probe 64 (797.53 62.27 3)
# Probe 65 (797.53 62.27 8)
# Probe 66 (799.8 17.7 1)
# Probe 67 (799.8 17.7 3)
# Probe 68 (799.8 17.7 8)
# Probe 69 (794.04 97.5 1)
# Probe 70 (794.04 97.5 3)
# Probe 71 (794.04 97.5 8)
# Probe 72 (780.33 176.31 1)
# Probe 73 (780.33 176.31 3)
# Probe 74 (780.33 176.31 8)
# Probe 75 (758.78 253.36 1)
# Probe 76 (758.78 253.36 3)
# Probe 77 (758.78 253.36 8)
#       Probe             0             1             2             3             4             5             6             7             8             9            10            11            12            13            14            15            16            17            18            19            20            21            22            23            24            25            26            27            28            29            30            31            32            33            34            35            36            37            38            39            40            41            42            43            44            45            46            47            48            49            50            51            52            53            54            55            56            57            58            59            60            61            62            63            64            65            66            67            68            69            70            71            72            73            74            75            76            77
#        Time
            1       308.559       308.559       308.559       308.559       308.559       308.559       308.519       308.525        308.55       308.519       308.525        308.55       308.559       308.559       308.559       308.559       308.559       308.559        308.56        308.56       308.559        308.56        308.56        308.56        308.56        308.56        308.56        308.56        308.56        308.56        308.56        308.56        308.56        308.56        308.56        308.56        308.56        308.56        308.56        308.56        308.56        308.56        308.56        308.56        308.56        308.56        308.56        308.56        308.56        308.56        308.56        308.56        308.56        308.56        308.56        308.56        308.56        308.56        308.56        308.56        308.56        308.56        308.56        308.56        308.56       308.559        308.56       308.559       308.559        308.56        308.56       308.559        308.56        308.56       308.559        308.56       308.559       308.559
            2       308.559       308.559       308.559       308.558       308.559       308.559        308.28       308.361       308.519        308.28       308.361       308.519       308.558       308.559       308.559       308.559       308.559       308.559       308.559       308.559       308.559        308.56        308.56        308.56        308.56        308.56       308.559       308.559       308.559       308.559       308.559       308.559       308.559        308.56        308.56       308.559        308.56        308.56        308.56        308.56        308.56        308.56        308.56        308.56        308.56        308.56        308.56        308.56        308.56       308.559       308.559        308.56        308.56        308.56        308.56        308.56        308.56        308.56        308.56        308.56        308.56        308.56        308.56        308.56       308.559       308.559        308.56       308.559       308.559        308.56       308.559       308.559        308.56       308.559       308.559       308.559       308.559       308.559
            3       308.553       308.559       308.559       308.533       308.557       308.559       307.618       307.881       308.465       307.618       307.881       308.465       308.533       308.557       308.559       308.553       308.559       308.559       308.559       308.559       308.559        308.56        308.56        308.56        308.56        308.56        308.56        308.56       308.559       308.559        308.56       308.559       308.559        308.56        308.56        308.56        308.56        308.56        308.56        308.56        308.56        308.56        308.56        308.56        308.56        308.56        308.56        308.56        308.56        308.56       308.559        308.56        308.56        308.56        308.56        308.56        308.56        308.56        308.56        308.56        308.56        308.56        308.56        308.56       308.559       308.559        308.56       308.559       308.559        308.56       308.559       308.559        308.56       308.559       308.559        308.56       308.559       308.559
            4       308.506       308.558       308.559       308.397       308.553       308.558        306.34       306.916       308.385        306.34       306.916       308.385       308.397       308.553       308.558       308.506       308.558       308.559       308.553       308.559       308.559        308.56        308.56        308.56        308.56        308.56        308.56        308.56       308.559       308.559        308.56       308.559       308.559        308.56        308.56        308.56        308.56        308.56        308.56        308.56        308.56        308.56        308.56        308.56        308.56        308.56        308.56        308.56        308.56        308.56       308.559        308.56        308.56        308.56        308.56        308.56        308.56        308.56        308.56        308.56        308.56        308.56        308.56        308.56       308.559       308.559        308.56       308.559       308.559        308.56       308.559       308.559        308.56       308.559       308.559        308.56       308.559       308.559
            5       308.382       308.555       308.559       308.069       308.442       308.557       304.846       305.239       308.241       304.846       305.239       308.241       308.069       308.442       308.557       308.382       308.555       308.559       308.531       308.559       308.559        308.56        308.56        308.56        308.56        308.56        308.56       308.559       308.559       308.559       308.559       308.559       308.559        308.56        308.56        308.56        308.56        308.56        308.56        308.56        308.56        308.56        308.56        308.56        308.56        308.56        308.56        308.56        308.56        308.56       308.559        308.56        308.56        308.56        308.56        308.56        308.56        308.56        308.56        308.56        308.56        308.56        308.56        308.56       308.559       308.559        308.56       308.559       308.559        308.56       308.559       308.559        308.56       308.559       308.559        308.56       308.559       308.559
            6       308.213       308.525       308.559         307.5       308.119       308.556       303.119       303.439       308.044       303.119       303.439       308.044         307.5       308.119       308.556       308.213       308.525       308.559       308.503       308.559        308.56        308.56        308.56        308.56        308.56        308.56        308.56       308.559       308.559       308.559       308.559       308.559       308.559        308.56        308.56        308.56        308.56        308.56        308.56        308.56        308.56        308.56        308.56        308.56        308.56        308.56        308.56        308.56        308.56        308.56       308.559        308.56        308.56        308.56        308.56        308.56        308.56        308.56        308.56        308.56        308.56        308.56        308.56        308.56       308.559       308.559        308.56       308.559       308.559        308.56       308.559       308.559        308.56       308.559       308.559        308.56       308.559       308.559
            7        308.02        308.51       308.559       306.752       307.553       308.555        301.35       301.574       307.328        301.35       301.574       307.328       306.752       307.553       308.555        308.02        308.51       308.559       308.479       308.558        308.56        308.56        308.56        308.56        308.56        308.56        308.56       308.556       308.558       308.559       308.556       308.558       308.559        308.56        308.56        308.56        308.56        308.56        308.56        308.56        308.56        308.56        308.56        308.56        308.56        308.56        308.56        308.56        308.56        308.56       308.559        308.56        308.56        308.56        308.56        308.56        308.56        308.56        308.56        308.56        308.56        308.56        308.56        308.56       308.559       308.559        308.56       308.559       308.558        308.56       308.559       308.559        308.56       308.559       308.559        308.56       308.559       308.559
            8        307.82       308.501       308.559       305.881       306.747       308.553       299.461       299.594       306.164       299.461       299.594       306.164       305.881       306.747       308.553        307.82       308.501       308.559       308.461       308.558       308.559        308.56        308.56        308.56        308.56        308.56        308.56        308.55       308.554       308.559        308.55       308.554       308.559        308.56        308.56        308.56        308.56        308.56        308.56        308.56        308.56        308.56        308.56        308.56        308.56        308.56        308.56        308.56        308.56        308.56       308.559        308.56        308.56        308.56        308.56        308.56        308.56        308.56        308.56        308.56        308.56        308.56        308.56        308.56       308.559       308.559        308.56       308.559       308.558        308.56       308.559       308.559        308.56       308.559       308.559        308.56       308.559       308.559
            9       307.627       308.484       308.558       304.972       305.796       308.549       297.505        297.59        304.66       297.505        297.59        304.66       304.972       305.796       308.549       307.627       308.484       308.558       308.452       308.557       308.559        308.56        308.56        308.56        308.56        308.56        308.56       308.538       308.546       308.557       308.538       308.546       308.557        308.56        308.56        308.56        308.56        308.56        308.56        308.56        308.56        308.56        308.56        308.56        308.56        308.56        308.56        308.56        308.56        308.56       308.559        308.56        308.56        308.56        308.56        308.56        308.56        308.56        308.56        308.56        308.56        308.56        308.56        308.56       308.559       308.559        308.56       308.559       308.558        308.56       308.559       308.559        308.56       308.559       308.559        308.56       308.559       308.559
           10       307.468       308.452       308.557       304.139        304.74       308.543       295.489       295.552       302.978       295.489       295.552       302.978       304.139        304.74       308.543       307.468       308.452       308.557       308.454       308.556       308.559        308.56        308.56        308.56        308.56        308.56        308.56       308.512        308.53       308.555       308.512        308.53       308.555        308.56        308.56        308.56        308.56        308.56        308.56        308.56        308.56        308.56        308.56        308.56        308.56        308.56        308.56        308.56        308.56        308.56       308.559        308.56        308.56        308.56        308.56        308.56        308.56        308.56        308.56        308.56        308.56        308.56        308.56        308.56       308.559       308.559        308.56       308.559       308.558        308.56       308.559       308.559        308.56       308.559       308.559        308.56       308.559       308.559
           11       307.377       308.403       308.556       303.562        303.84       308.533       293.419       293.499       301.298       293.419       293.499       301.298       303.562        303.84       308.533       307.377       308.403       308.556        308.47       308.555       308.558        308.56        308.56        308.56        308.56        308.56        308.56       308.464       308.496        308.55       308.464       308.496        308.55        308.56        308.56        308.56        308.56        308.56        308.56        308.56        308.56        308.56        308.56        308.56        308.56        308.56        308.56        308.56        308.56        308.56       308.559        308.56        308.56        308.56        308.56        308.56        308.56        308.56        308.56        308.56        308.56        308.56        308.56        308.56       308.559       308.559        308.56       308.559       308.558        308.56       308.559       308.559        308.56       308.559       308.559        308.56       308.559       308.559
           12        307.33       308.342       308.554        303.22       303.343       308.514       291.319        291.47        299.66       291.319        291.47        299.66        303.22       303.343       308.514        307.33       308.342       308.554       308.492       308.553       308.557        308.56        308.56        308.56        308.56        308.56        308.56       308.382       308.436       308.542       308.382       308.436       308.542        308.56        308.56        308.56        308.56        308.56        308.56        308.56        308.56        308.56        308.56        308.56        308.56        308.56        308.56        308.56        308.56        308.56       308.559        308.56        308.56        308.56        308.56        308.56        308.56        308.56        308.56        308.56        308.56        308.56        308.56        308.56       308.559       308.559        308.56       308.559       308.558        308.56       308.559       308.559        308.56       308.559       308.559        308.56       308.559       308.559
           13         307.3       308.283       308.551       302.988       303.093       308.482       289.257        289.53       298.101       289.257        289.53       298.101       302.988       303.093       308.482         307.3       308.283       308.551       308.512       308.552       308.556        308.56        308.56        308.56       308.559       308.559        308.56        308.25       308.332       308.529        308.25       308.332       308.529       308.559       308.559        308.56        308.56        308.56        308.56        308.56        308.56        308.56        308.56        308.56        308.56        308.56        308.56        308.56        308.56        308.56       308.559        308.56        308.56        308.56        308.56        308.56        308.56        308.56        308.56        308.56        308.56        308.56        308.56        308.56       308.559       308.559        308.56       308.559       308.558        308.56       308.559       308.559        308.56       308.559       308.559        308.56       308.559       308.559
           14       307.302       308.223       308.547       302.763       302.929       308.426       287.306       287.763       296.686       287.306       287.763       296.686       302.763       302.929       308.426       307.302       308.223       308.547       308.525       308.551       308.555       308.561        308.56        308.56       308.558       308.559        308.56       308.048       308.166       308.508       308.048       308.166       308.508       308.558       308.559        308.56        308.56        308.56        308.56        308.56        308.56        308.56        308.56        308.56        308.56        308.56        308.56        308.56        308.56        308.56       308.559        308.56        308.56        308.56        308.56        308.56        308.56        308.56        308.56        308.56        308.56        308.56        308.56        308.56       308.559       308.559        308.56       308.559       308.558        308.56       308.559       308.559        308.56       308.559       308.559        308.56       308.559       308.559
           15       307.354       308.177       308.543       302.513       302.789       308.343       285.542       286.252       295.383       285.542       286.252       295.383       302.513       302.789       308.343       307.354       308.177       308.543       308.534       308.549       308.553       308.561        308.56        308.56       308.556       308.559        308.56       307.751        307.91       308.477       307.751        307.91       308.477       308.556       308.559        308.56        308.56        308.56        308.56        308.56        308.56       308.559        308.56        308.56        308.56        308.56        308.56        308.56        308.56        308.56       308.559        308.56        308.56        308.56        308.56        308.56        308.56        308.56        308.56        308.56        308.56        308.56        308.56        308.56       308.559       308.559        308.56       308.559       308.558        308.56       308.559       308.559        308.56       308.559       308.559        308.56       308.559       308.559
           16       307.457       308.162       308.539       302.254       302.702       308.239       284.022       285.047        294.32       284.022       285.047        294.32       302.254       302.702       308.239       307.457       308.162       308.539       308.539       308.548       308.552       308.561        308.56        308.56       308.552       308.558       308.559       307.335       307.537       308.434       307.335       307.537       308.434       308.552       308.558       308.559        308.56        308.56        308.56        308.56        308.56       308.559       308.561        308.56        308.56        308.56        308.56        308.56        308.56        308.56       308.559        308.56        308.56        308.56       308.561        308.56        308.56       308.561        308.56        308.56       308.561        308.56        308.56        308.56       308.559       308.559        308.56       308.559       308.558        308.56       308.559       308.559        308.56       308.559       308.559        308.56       308.559       308.559
           17       307.598       308.185       308.536       302.037       302.713       308.121       282.772       284.152       293.597       282.772       284.152       293.597       302.037       302.713       308.121       307.598       308.185       308.536       308.542       308.547        308.55       308.561        308.56        308.56       308.546       308.556       308.559       306.775       307.019       308.376       306.775       307.019       308.376       308.546       308.556       308.559        308.56        308.56       308.559        308.56       308.559       308.559       308.561        308.56        308.56       308.561        308.56        308.56        308.56        308.56        308.56        308.56        308.56        308.56       308.561        308.56        308.56       308.561        308.56        308.56       308.561        308.56        308.56        308.56       308.559       308.559        308.56       308.559       308.558        308.56       308.559       308.559        308.56       308.559       308.559        308.56       308.559       308.559
           18       307.776       308.243       308.535       301.878       302.816       307.985       281.775       283.528        293.24       281.775       283.528        293.24       301.878       302.816       307.985       307.776       308.243       308.535       308.543       308.546       308.548        308.56        308.56        308.56       308.538       308.554       308.559       306.047       306.333       308.303       306.047       306.333       308.303       308.538       308.554       308.559        308.56        308.56       308.559        308.56       308.559       308.559       308.561        308.56        308.56       308.561        308.56        308.56        308.56        308.56        308.56        308.56        308.56        308.56       308.561        308.56        308.56       308.561        308.56        308.56       308.561        308.56        308.56        308.56       308.559       308.559        308.56       308.559       308.559        308.56       308.559       308.559        308.56       308.559       308.559        308.56       308.559       308.559
           19        307.95       308.314       308.534       301.781       302.988        307.84       280.978       283.107       293.172       280.978       283.107       293.172       301.781       302.988        307.84        307.95       308.314       308.534       308.543       308.545       308.547        308.56        308.56       308.559       308.524        308.55       308.559       305.132       305.465       308.215       305.132       305.465       308.215       308.524        308.55       308.559        308.56       308.559       308.559        308.56       308.559       308.559       308.561        308.56        308.56       308.561        308.56        308.56        308.56        308.56        308.56        308.56        308.56        308.56       308.561        308.56        308.56       308.561        308.56        308.56       308.561        308.56        308.56        308.56       308.559       308.559        308.56       308.559       308.559        308.56       308.559       308.559        308.56       308.559       308.559        308.56       308.559       308.559
           20       308.098       308.367       308.534       301.734       303.213       307.733       280.304       282.807        293.32       280.304       282.807        293.32       301.734       303.213       307.733       308.098       308.367       308.534       308.543       308.544       308.545        308.56        308.56       308.559       308.505       308.544       308.558       304.021       304.422       308.113       304.021       304.422       308.113       308.505       308.544       308.558        308.56       308.559       308.559       308.559       308.559       308.558       308.561        308.56        308.56       308.561        308.56        308.56        308.56        308.56        308.56        308.56        308.56        308.56       308.561        308.56        308.56       308.561        308.56        308.56       308.561        308.56        308.56        308.56       308.559       308.559        308.56       308.559       308.559        308.56       308.559       308.559        308.56       308.559       308.559        308.56       308.559       308.559
           21       308.184       308.405       308.535       301.721       303.459       307.715       279.674       282.549       293.583       279.674       282.549       293.583       301.721       303.459       307.715       308.184       308.405       308.535       308.543       308.543       308.543        308.56       308.559       308.559       308.477       308.535       308.557       302.729        303.23       307.999       302.729        303.23       307.999       308.477       308.535       308.557        308.56       308.559       308.559       308.559       308.558       308.558       308.561        308.56        308.56       308.561        308.56        308.56        308.56        308.56        308.56        308.56        308.56        308.56       308.561        308.56        308.56       308.561        308.56        308.56       308.561        308.56        308.56        308.56       308.559       308.559        308.56       308.559       308.559        308.56       308.559       308.559        308.56        308.56       308.559        308.56        308.56       308.559
           22       308.242       308.433       308.535       301.718       303.707       307.811       279.011       282.266       293.919       279.011       282.266       293.919       301.718       303.707       307.811       308.242       308.433       308.535       308.542       308.541       308.541        308.56       308.559       308.559       308.437       308.522       308.555       301.298       301.936       307.874       301.298       301.936       307.874       308.437       308.522       308.555       308.559       308.559       308.558       308.559       308.558       308.557       308.561        308.56        308.56       308.561        308.56        308.56        308.56        308.56        308.56        308.56        308.56        308.56       308.561        308.56        308.56       308.561        308.56        308.56       308.561        308.56        308.56        308.56       308.559       308.559        308.56       308.559       308.559        308.56        308.56       308.559        308.56        308.56       308.559        308.56        308.56       308.559
           23       308.282       308.451       308.535       301.688       303.945       307.967       278.256       281.911       294.334       278.256       281.911       294.334       301.688       303.945       307.967       308.282       308.451       308.535       308.541        308.54        308.54        308.56       308.559       308.559        308.38       308.503       308.553       299.783       300.612       307.735       299.783       300.612       307.735        308.38       308.503       308.553       308.559       308.558       308.558       308.558       308.557       308.556       308.561        308.56        308.56        308.56        308.56        308.56        308.56        308.56        308.56        308.56        308.56        308.56       308.561        308.56        308.56       308.561        308.56        308.56        308.56        308.56        308.56        308.56        308.56       308.559        308.56       308.559       308.559        308.56        308.56       308.559        308.56        308.56       308.559        308.56        308.56       308.559
           24       308.292       308.464       308.535       301.578       304.168       308.066        277.37        281.46       294.812        277.37        281.46       294.812       301.578       304.168       308.066       308.292       308.464       308.535        308.54       308.539       308.539       308.559       308.559       308.558       308.301       308.474        308.55       298.254        299.33       307.579       298.254        299.33       307.579       308.301       308.474        308.55       308.559       308.558       308.557       308.557       308.556       308.556       308.561        308.56        308.56        308.56        308.56        308.56        308.56        308.56        308.56        308.56        308.56        308.56       308.561        308.56        308.56       308.561        308.56        308.56        308.56        308.56        308.56        308.56        308.56       308.559        308.56       308.559       308.559        308.56        308.56       308.559        308.56        308.56       308.559        308.56        308.56       308.559