/*--------------------------------*- C++ -*----------------------------------*\
| =========                 |                                                 |
| \\      /  F ield         | OpenFOAM: The Open Source CFD Toolbox           |
|  \\    /   O peration     | Version:  5.x                                   |
|   \\  /    A nd           | Web:      www.OpenFOAM.org                      |
|    \\/     M anipulation  |                                                 |
\*---------------------------------------------------------------------------*/
FoamFile
{
    version     2.0;
    format      ascii;
    class       volScalarField;
    location    "0";
    object      alphat;
}
// * * * * * * * * * * * * * * * * * * * * * * * * * * * * * * * * * * * * * //

dimensions      [1 -1 -1 0 0 0 0];

internalField   nonuniform List<scalar> 
21600
(
0.0153171
0.0151744
0.0150924
0.0150545
0.0150342
0.0150214
0.0150129
0.0150071
0.015003
0.0150002
0.0149982
0.0149969
0.014996
0.0149954
0.0149952
0.0149951
0.0149952
0.0149954
0.0149957
0.0149961
0.0149966
0.0149971
0.0149977
0.0149983
0.0149989
0.0149995
0.0150002
0.0150009
0.0150015
0.0150022
0.0150029
0.0150036
0.0150042
0.0150049
0.0150056
0.0150062
0.0150069
0.0150075
0.0150082
0.0150088
0.0150095
0.0150101
0.0150107
0.0150113
0.0150119
0.0150125
0.0150131
0.0150137
0.0150143
0.0150149
0.0150154
0.015016
0.0150165
0.0150171
0.0150176
0.0150182
0.0150187
0.0150192
0.0150197
0.0150202
0.0150207
0.0150212
0.0150217
0.0150222
0.0150227
0.0150232
0.0150236
0.0150241
0.0150246
0.015025
0.0150255
0.0150259
0.0150264
0.0150268
0.0150272
0.0150276
0.0150281
0.0150285
0.0150289
0.0150293
0.0150297
0.0150301
0.0150305
0.0150309
0.0150312
0.0150316
0.015032
0.0150323
0.0150327
0.0150331
0.0150334
0.0150338
0.0150341
0.0150344
0.0150348
0.0150351
0.0150354
0.0150358
0.0150361
0.0150364
0.0150367
0.015037
0.0150373
0.0150376
0.0150379
0.0150382
0.0150384
0.0150387
0.015039
0.0150393
0.0150395
0.0150398
0.01504
0.0150403
0.0150405
0.0150408
0.015041
0.0150412
0.0150415
0.0150417
0.0150419
0.0150421
0.0150423
0.0150425
0.0150427
0.0150429
0.0150431
0.0150433
0.0150434
0.0150436
0.0150438
0.0150439
0.0150441
0.0150442
0.0150444
0.0150445
0.0150446
0.0150447
0.0150448
0.015045
0.015045
0.0150451
0.0150452
0.0150453
0.0150453
0.0150454
0.0150454
0.0150455
0.0150455
0.0150457
0.0450607
0.0440325
0.0438349
0.0437423
0.0436745
0.0436231
0.0435828
0.0435508
0.0435248
0.0435034
0.0434855
0.0434705
0.0434578
0.043447
0.0434377
0.0434296
0.0434226
0.0434167
0.0434115
0.0434071
0.0434032
0.0434
0.0433972
0.0433948
0.0433927
0.043391
0.0433896
0.0433884
0.0433874
0.0433866
0.043386
0.0433856
0.0433852
0.043385
0.043385
0.043385
0.0433851
0.0433852
0.0433855
0.0433858
0.0433861
0.0433865
0.043387
0.0433875
0.043388
0.0433886
0.0433892
0.0433898
0.0433905
0.0433911
0.0433918
0.0433925
0.0433933
0.043394
0.0433947
0.0433955
0.0433963
0.0433971
0.0433978
0.0433986
0.0433994
0.0434002
0.043401
0.0434019
0.0434027
0.0434035
0.0434043
0.0434051
0.0434059
0.0434067
0.0434076
0.0434084
0.0434092
0.04341
0.0434108
0.0434116
0.0434124
0.0434132
0.043414
0.0434148
0.0434156
0.0434164
0.0434171
0.0434179
0.0434187
0.0434195
0.0434202
0.043421
0.0434217
0.0434225
0.0434232
0.0434239
0.0434247
0.0434254
0.0434261
0.0434268
0.0434275
0.0434282
0.0434289
0.0434296
0.0434303
0.043431
0.0434316
0.0434323
0.043433
0.0434336
0.0434343
0.0434349
0.0434355
0.0434362
0.0434368
0.0434374
0.043438
0.0434386
0.0434392
0.0434398
0.0434404
0.0434409
0.0434415
0.0434421
0.0434426
0.0434432
0.0434437
0.0434442
0.0434447
0.0434453
0.0434458
0.0434463
0.0434468
0.0434473
0.0434477
0.0434482
0.0434487
0.0434491
0.0434496
0.04345
0.0434505
0.0434509
0.0434513
0.0434517
0.0434521
0.0434525
0.0434529
0.0434533
0.0434536
0.043454
0.0434543
0.0434547
0.043455
0.0434551
0.0797556
0.0769831
0.0758879
0.075366
0.0750594
0.0748528
0.0746998
0.0745802
0.0744826
0.0744012
0.074332
0.0742721
0.0742196
0.0741732
0.0741319
0.074095
0.074062
0.0740322
0.0740054
0.0739811
0.073959
0.0739389
0.0739205
0.0739038
0.0738884
0.0738743
0.0738613
0.0738493
0.0738383
0.0738281
0.0738186
0.0738099
0.0738018
0.0737943
0.0737874
0.0737809
0.0737749
0.0737693
0.073764
0.0737592
0.0737546
0.0737504
0.0737465
0.0737428
0.0737394
0.0737362
0.0737332
0.0737304
0.0737278
0.0737254
0.0737231
0.073721
0.0737191
0.0737172
0.0737155
0.0737139
0.0737124
0.0737111
0.0737098
0.0737086
0.0737075
0.0737065
0.0737056
0.0737047
0.0737039
0.0737032
0.0737025
0.0737019
0.0737014
0.0737009
0.0737004
0.0737
0.0736996
0.0736993
0.073699
0.0736988
0.0736986
0.0736984
0.0736982
0.0736981
0.073698
0.0736979
0.0736979
0.0736979
0.0736979
0.0736979
0.073698
0.073698
0.0736981
0.0736982
0.0736983
0.0736985
0.0736986
0.0736988
0.0736989
0.0736991
0.0736993
0.0736995
0.0736997
0.0737
0.0737002
0.0737004
0.0737007
0.073701
0.0737012
0.0737015
0.0737018
0.0737021
0.0737024
0.0737027
0.073703
0.0737033
0.0737036
0.0737039
0.0737043
0.0737046
0.0737049
0.0737053
0.0737056
0.073706
0.0737063
0.0737067
0.073707
0.0737074
0.0737077
0.0737081
0.0737084
0.0737088
0.0737092
0.0737095
0.0737099
0.0737103
0.0737107
0.073711
0.0737114
0.0737118
0.0737122
0.0737126
0.0737129
0.0737133
0.0737137
0.0737141
0.0737145
0.0737149
0.0737153
0.0737158
0.0737161
0.0737167
0.0737171
0.0737176
0.120118
0.1164
0.114382
0.113243
0.112533
0.112046
0.111686
0.111406
0.111178
0.110987
0.110824
0.110681
0.110555
0.110443
0.110342
0.110251
0.110169
0.110094
0.110026
0.109963
0.109905
0.109852
0.109802
0.109757
0.109714
0.109675
0.109638
0.109603
0.109571
0.109541
0.109512
0.109486
0.109461
0.109437
0.109415
0.109394
0.109374
0.109355
0.109337
0.109321
0.109305
0.10929
0.109275
0.109261
0.109248
0.109236
0.109224
0.109213
0.109202
0.109192
0.109183
0.109173
0.109164
0.109156
0.109148
0.10914
0.109133
0.109125
0.109119
0.109112
0.109106
0.1091
0.109094
0.109088
0.109083
0.109078
0.109073
0.109068
0.109064
0.109059
0.109055
0.109051
0.109047
0.109043
0.10904
0.109036
0.109033
0.10903
0.109026
0.109023
0.10902
0.109018
0.109015
0.109012
0.10901
0.109007
0.109005
0.109002
0.109
0.108998
0.108996
0.108994
0.108992
0.10899
0.108988
0.108986
0.108985
0.108983
0.108981
0.10898
0.108978
0.108977
0.108975
0.108974
0.108973
0.108971
0.10897
0.108969
0.108968
0.108967
0.108966
0.108965
0.108964
0.108963
0.108962
0.108961
0.10896
0.108959
0.108958
0.108957
0.108956
0.108956
0.108955
0.108954
0.108954
0.108953
0.108952
0.108952
0.108951
0.108951
0.10895
0.10895
0.108949
0.108949
0.108948
0.108948
0.108947
0.108947
0.108947
0.108946
0.108946
0.108946
0.108946
0.108945
0.108945
0.108945
0.108945
0.108945
0.108945
0.108946
0.164847
0.1611
0.158567
0.156899
0.155763
0.154946
0.154326
0.153836
0.153433
0.153091
0.152797
0.152538
0.152309
0.152104
0.151918
0.151749
0.151595
0.151454
0.151324
0.151203
0.151092
0.150988
0.150891
0.1508
0.150716
0.150636
0.150562
0.150491
0.150425
0.150362
0.150303
0.150247
0.150195
0.150144
0.150097
0.150051
0.150008
0.149967
0.149928
0.149891
0.149855
0.149821
0.149789
0.149758
0.149728
0.1497
0.149672
0.149646
0.149621
0.149597
0.149574
0.149552
0.14953
0.14951
0.14949
0.149471
0.149452
0.149435
0.149417
0.149401
0.149385
0.14937
0.149355
0.14934
0.149326
0.149313
0.1493
0.149287
0.149275
0.149263
0.149252
0.149241
0.14923
0.149219
0.149209
0.149199
0.14919
0.149181
0.149171
0.149163
0.149154
0.149146
0.149138
0.14913
0.149122
0.149115
0.149107
0.1491
0.149093
0.149086
0.14908
0.149073
0.149067
0.149061
0.149055
0.149049
0.149043
0.149038
0.149032
0.149027
0.149022
0.149017
0.149012
0.149007
0.149002
0.148998
0.148993
0.148989
0.148984
0.14898
0.148976
0.148972
0.148968
0.148964
0.14896
0.148957
0.148953
0.14895
0.148946
0.148943
0.148939
0.148936
0.148933
0.14893
0.148927
0.148924
0.148921
0.148918
0.148915
0.148913
0.14891
0.148907
0.148905
0.148903
0.1489
0.148898
0.148896
0.148893
0.148891
0.148889
0.148887
0.148885
0.148883
0.148881
0.14888
0.148878
0.148876
0.148875
0.148873
0.148873
0.213686
0.21048
0.207905
0.205978
0.204544
0.203451
0.20259
0.201887
0.201299
0.200795
0.200355
0.199966
0.199617
0.199303
0.199016
0.198753
0.198512
0.198288
0.198081
0.197888
0.197708
0.197539
0.19738
0.197231
0.197091
0.196958
0.196833
0.196714
0.196602
0.196495
0.196393
0.196297
0.196205
0.196118
0.196034
0.195954
0.195878
0.195805
0.195735
0.195669
0.195605
0.195543
0.195484
0.195428
0.195373
0.195321
0.19527
0.195222
0.195175
0.19513
0.195087
0.195045
0.195005
0.194966
0.194928
0.194891
0.194856
0.194822
0.194789
0.194757
0.194726
0.194696
0.194667
0.194639
0.194612
0.194585
0.194559
0.194534
0.19451
0.194486
0.194463
0.194441
0.194419
0.194398
0.194377
0.194357
0.194337
0.194318
0.1943
0.194281
0.194264
0.194246
0.194229
0.194213
0.194197
0.194181
0.194166
0.194151
0.194136
0.194122
0.194108
0.194094
0.19408
0.194067
0.194054
0.194042
0.194029
0.194017
0.194006
0.193994
0.193983
0.193971
0.193961
0.19395
0.193939
0.193929
0.193919
0.193909
0.193899
0.19389
0.193881
0.193871
0.193862
0.193854
0.193845
0.193836
0.193828
0.19382
0.193812
0.193804
0.193796
0.193789
0.193781
0.193774
0.193767
0.19376
0.193753
0.193746
0.193739
0.193733
0.193726
0.19372
0.193714
0.193708
0.193702
0.193696
0.193691
0.193685
0.19368
0.193674
0.193669
0.193664
0.193659
0.193654
0.193649
0.193645
0.19364
0.193636
0.193631
0.193629
0.266912
0.264452
0.262181
0.260287
0.258754
0.257511
0.256488
0.255629
0.254892
0.254249
0.25368
0.25317
0.252707
0.252285
0.251897
0.251538
0.251205
0.250894
0.250603
0.25033
0.250074
0.249832
0.249603
0.249387
0.249182
0.248987
0.248801
0.248625
0.248457
0.248297
0.248144
0.247997
0.247857
0.247723
0.247594
0.247471
0.247353
0.247239
0.24713
0.247025
0.246924
0.246827
0.246733
0.246643
0.246556
0.246472
0.246391
0.246313
0.246237
0.246164
0.246093
0.246025
0.245959
0.245894
0.245832
0.245772
0.245714
0.245657
0.245602
0.245549
0.245497
0.245446
0.245397
0.24535
0.245304
0.245258
0.245215
0.245172
0.24513
0.24509
0.24505
0.245012
0.244974
0.244938
0.244902
0.244867
0.244833
0.2448
0.244768
0.244736
0.244705
0.244675
0.244645
0.244616
0.244588
0.24456
0.244533
0.244506
0.24448
0.244454
0.244429
0.244405
0.244381
0.244357
0.244334
0.244312
0.244289
0.244268
0.244246
0.244225
0.244205
0.244184
0.244165
0.244145
0.244126
0.244107
0.244089
0.244071
0.244053
0.244035
0.244018
0.244001
0.243985
0.243968
0.243952
0.243937
0.243921
0.243906
0.243891
0.243876
0.243862
0.243847
0.243833
0.24382
0.243806
0.243793
0.24378
0.243767
0.243754
0.243742
0.243729
0.243717
0.243705
0.243694
0.243682
0.243671
0.24366
0.243649
0.243638
0.243628
0.243617
0.243607
0.243597
0.243588
0.243578
0.243569
0.243559
0.243551
0.243541
0.243535
0.325033
0.323289
0.321493
0.319838
0.318395
0.317158
0.316095
0.315172
0.314359
0.313634
0.31298
0.312384
0.311836
0.311329
0.310857
0.310416
0.310003
0.309613
0.309245
0.308897
0.308567
0.308253
0.307954
0.307669
0.307397
0.307137
0.306889
0.306651
0.306423
0.306204
0.305994
0.305792
0.305597
0.305411
0.305231
0.305058
0.304891
0.30473
0.304575
0.304425
0.30428
0.30414
0.304005
0.303875
0.303748
0.303626
0.303507
0.303392
0.303281
0.303173
0.303068
0.302967
0.302868
0.302773
0.30268
0.30259
0.302502
0.302416
0.302333
0.302253
0.302174
0.302097
0.302023
0.30195
0.301879
0.30181
0.301743
0.301677
0.301613
0.301551
0.30149
0.30143
0.301372
0.301315
0.301259
0.301205
0.301152
0.3011
0.301049
0.300999
0.30095
0.300902
0.300855
0.30081
0.300765
0.300721
0.300678
0.300635
0.300594
0.300553
0.300513
0.300474
0.300436
0.300398
0.300361
0.300324
0.300289
0.300254
0.300219
0.300185
0.300152
0.300119
0.300087
0.300056
0.300024
0.299994
0.299964
0.299934
0.299905
0.299877
0.299848
0.299821
0.299794
0.299767
0.29974
0.299714
0.299689
0.299664
0.299639
0.299614
0.29959
0.299567
0.299543
0.29952
0.299498
0.299476
0.299454
0.299432
0.299411
0.29939
0.299369
0.299349
0.299329
0.299309
0.29929
0.299271
0.299252
0.299233
0.299215
0.299197
0.299179
0.299162
0.299145
0.299128
0.299111
0.299095
0.299078
0.299063
0.299047
0.299035
0.388651
0.38749
0.386181
0.384876
0.383661
0.382564
0.381581
0.380698
0.379898
0.379167
0.378493
0.377867
0.377282
0.376732
0.376213
0.375721
0.375253
0.374808
0.374383
0.373976
0.373587
0.373213
0.372855
0.37251
0.372178
0.371859
0.371552
0.371255
0.370969
0.370693
0.370427
0.37017
0.369921
0.36968
0.369447
0.369222
0.369004
0.368793
0.368588
0.36839
0.368198
0.368011
0.36783
0.367655
0.367484
0.367319
0.367158
0.367001
0.366849
0.366702
0.366558
0.366418
0.366282
0.36615
0.366021
0.365895
0.365773
0.365653
0.365537
0.365423
0.365313
0.365205
0.365099
0.364996
0.364896
0.364798
0.364702
0.364608
0.364516
0.364427
0.364339
0.364253
0.364169
0.364087
0.364007
0.363928
0.363851
0.363775
0.363701
0.363628
0.363557
0.363487
0.363419
0.363352
0.363286
0.363221
0.363158
0.363096
0.363034
0.362974
0.362915
0.362857
0.3628
0.362744
0.362689
0.362635
0.362582
0.36253
0.362478
0.362428
0.362378
0.362329
0.362281
0.362233
0.362187
0.362141
0.362096
0.362051
0.362007
0.361964
0.361921
0.36188
0.361838
0.361798
0.361758
0.361718
0.361679
0.361641
0.361603
0.361566
0.361529
0.361493
0.361457
0.361422
0.361387
0.361353
0.36132
0.361286
0.361254
0.361221
0.361189
0.361158
0.361127
0.361096
0.361066
0.361036
0.361007
0.360978
0.360949
0.360921
0.360893
0.360866
0.360839
0.360812
0.360786
0.36076
0.360734
0.360709
0.360684
0.360663
0.458418
0.457682
0.456795
0.455856
0.454934
0.454061
0.453249
0.452495
0.451793
0.451135
0.450514
0.449924
0.449361
0.448822
0.448305
0.447806
0.447324
0.446859
0.446409
0.445974
0.445551
0.445142
0.444745
0.444359
0.443985
0.443622
0.443269
0.442926
0.442593
0.442269
0.441954
0.441648
0.441351
0.441061
0.44078
0.440506
0.440239
0.43998
0.439727
0.439481
0.439242
0.439009
0.438781
0.43856
0.438344
0.438134
0.437929
0.437729
0.437535
0.437344
0.437159
0.436978
0.436801
0.436629
0.43646
0.436296
0.436135
0.435978
0.435824
0.435674
0.435528
0.435384
0.435244
0.435106
0.434972
0.43484
0.434712
0.434586
0.434462
0.434341
0.434222
0.434106
0.433992
0.43388
0.433771
0.433663
0.433558
0.433454
0.433353
0.433253
0.433155
0.433059
0.432965
0.432872
0.432781
0.432691
0.432603
0.432517
0.432432
0.432348
0.432266
0.432185
0.432106
0.432027
0.43195
0.431875
0.4318
0.431726
0.431654
0.431583
0.431513
0.431444
0.431376
0.431309
0.431243
0.431177
0.431113
0.43105
0.430988
0.430926
0.430866
0.430806
0.430747
0.430689
0.430632
0.430575
0.43052
0.430465
0.430411
0.430357
0.430304
0.430252
0.430201
0.43015
0.4301
0.430051
0.430002
0.429954
0.429906
0.429859
0.429813
0.429767
0.429722
0.429678
0.429634
0.42959
0.429547
0.429505
0.429463
0.429422
0.429381
0.42934
0.429301
0.429261
0.429222
0.429184
0.429146
0.429109
0.429072
0.429039
0.535025
0.534573
0.534015
0.533399
0.532768
0.53215
0.531556
0.530989
0.530447
0.529926
0.529421
0.52893
0.528451
0.52798
0.527518
0.527064
0.526617
0.526177
0.525745
0.525319
0.5249
0.524488
0.524083
0.523686
0.523296
0.522913
0.522537
0.522168
0.521807
0.521453
0.521106
0.520766
0.520433
0.520106
0.519787
0.519475
0.519169
0.518869
0.518576
0.518289
0.518008
0.517733
0.517465
0.517201
0.516944
0.516692
0.516445
0.516204
0.515967
0.515736
0.515509
0.515287
0.51507
0.514857
0.514649
0.514445
0.514245
0.514049
0.513857
0.513668
0.513484
0.513303
0.513125
0.512951
0.512781
0.512613
0.512449
0.512288
0.512129
0.511974
0.511821
0.511672
0.511525
0.51138
0.511238
0.511099
0.510961
0.510827
0.510694
0.510564
0.510436
0.51031
0.510186
0.510064
0.509944
0.509826
0.50971
0.509596
0.509483
0.509372
0.509263
0.509156
0.50905
0.508945
0.508843
0.508741
0.508642
0.508543
0.508446
0.508351
0.508257
0.508164
0.508072
0.507982
0.507893
0.507805
0.507718
0.507633
0.507548
0.507465
0.507383
0.507302
0.507222
0.507143
0.507065
0.506988
0.506912
0.506837
0.506763
0.506689
0.506617
0.506546
0.506475
0.506405
0.506337
0.506269
0.506201
0.506135
0.50607
0.506005
0.505941
0.505877
0.505815
0.505753
0.505692
0.505632
0.505572
0.505513
0.505454
0.505397
0.50534
0.505283
0.505228
0.505172
0.505118
0.505064
0.50501
0.504958
0.504906
0.504859
0.619207
0.618937
0.618611
0.618247
0.617866
0.617486
0.617115
0.616755
0.616403
0.616057
0.615713
0.615369
0.615022
0.614671
0.614315
0.613956
0.613592
0.613225
0.612855
0.612483
0.61211
0.611736
0.611362
0.610988
0.610616
0.610245
0.609877
0.609511
0.609149
0.608789
0.608434
0.608082
0.607734
0.607391
0.607052
0.606718
0.606389
0.606064
0.605744
0.605429
0.605118
0.604813
0.604513
0.604217
0.603926
0.60364
0.603359
0.603083
0.602811
0.602544
0.602281
0.602023
0.601769
0.60152
0.601275
0.601034
0.600797
0.600564
0.600335
0.60011
0.599889
0.599672
0.599458
0.599248
0.599041
0.598837
0.598637
0.598441
0.598247
0.598056
0.597869
0.597685
0.597503
0.597324
0.597148
0.596975
0.596805
0.596637
0.596471
0.596309
0.596148
0.59599
0.595834
0.595681
0.59553
0.59538
0.595234
0.595089
0.594946
0.594805
0.594666
0.594529
0.594394
0.594261
0.59413
0.594
0.593872
0.593746
0.593621
0.593498
0.593377
0.593257
0.593139
0.593022
0.592907
0.592793
0.59268
0.592569
0.592459
0.592351
0.592244
0.592138
0.592034
0.591931
0.591829
0.591728
0.591628
0.59153
0.591432
0.591336
0.591241
0.591147
0.591054
0.590962
0.590871
0.590782
0.590693
0.590605
0.590518
0.590432
0.590347
0.590263
0.59018
0.590097
0.590016
0.589935
0.589855
0.589777
0.589699
0.589621
0.589545
0.589469
0.589394
0.58932
0.589247
0.589174
0.589102
0.589031
0.58896
0.588896
0.711751
0.711594
0.711422
0.711236
0.711047
0.710862
0.710685
0.710516
0.710354
0.710191
0.710025
0.709852
0.709667
0.70947
0.709259
0.709035
0.708796
0.708545
0.708281
0.708005
0.70772
0.707425
0.707122
0.706812
0.706496
0.706174
0.705849
0.705521
0.705189
0.704856
0.704522
0.704188
0.703853
0.703518
0.703185
0.702853
0.702522
0.702193
0.701866
0.701542
0.701221
0.700902
0.700586
0.700273
0.699964
0.699658
0.699355
0.699056
0.69876
0.698468
0.698179
0.697894
0.697613
0.697335
0.697061
0.696791
0.696524
0.69626
0.696001
0.695744
0.695491
0.695242
0.694996
0.694753
0.694514
0.694278
0.694045
0.693815
0.693588
0.693365
0.693144
0.692927
0.692712
0.6925
0.692291
0.692085
0.691882
0.691681
0.691483
0.691287
0.691094
0.690904
0.690716
0.69053
0.690347
0.690166
0.689987
0.689811
0.689637
0.689465
0.689295
0.689127
0.688961
0.688797
0.688635
0.688476
0.688318
0.688162
0.688007
0.687855
0.687704
0.687555
0.687408
0.687263
0.687119
0.686977
0.686836
0.686697
0.686559
0.686423
0.686289
0.686156
0.686024
0.685894
0.685766
0.685638
0.685512
0.685388
0.685265
0.685143
0.685022
0.684902
0.684784
0.684667
0.684551
0.684437
0.684323
0.684211
0.6841
0.68399
0.683881
0.683773
0.683666
0.68356
0.683456
0.683352
0.683249
0.683147
0.683047
0.682947
0.682848
0.68275
0.682653
0.682556
0.682461
0.682367
0.682273
0.682181
0.682088
0.682003
0.813514
0.813427
0.81335
0.813281
0.813223
0.81318
0.813152
0.813139
0.813137
0.81314
0.813142
0.813138
0.813123
0.813092
0.813045
0.812979
0.812893
0.812787
0.812662
0.812518
0.812356
0.812178
0.811983
0.811774
0.811552
0.811317
0.811072
0.810817
0.810552
0.81028
0.810001
0.809716
0.809426
0.809132
0.808833
0.808532
0.808228
0.807921
0.807614
0.807305
0.806996
0.806687
0.806378
0.806069
0.805761
0.805454
0.805148
0.804843
0.804541
0.804239
0.80394
0.803643
0.803348
0.803055
0.802765
0.802477
0.802191
0.801908
0.801628
0.80135
0.801075
0.800802
0.800532
0.800265
0.800001
0.799739
0.79948
0.799223
0.79897
0.798719
0.79847
0.798224
0.797981
0.797741
0.797503
0.797267
0.797034
0.796804
0.796576
0.796351
0.796128
0.795907
0.795689
0.795473
0.795259
0.795048
0.794839
0.794632
0.794427
0.794225
0.794024
0.793826
0.79363
0.793436
0.793244
0.793053
0.792865
0.792679
0.792495
0.792312
0.792132
0.791953
0.791776
0.791601
0.791428
0.791256
0.791087
0.790918
0.790752
0.790587
0.790424
0.790262
0.790102
0.789943
0.789786
0.789631
0.789477
0.789324
0.789173
0.789024
0.788875
0.788728
0.788583
0.788439
0.788296
0.788154
0.788014
0.787875
0.787738
0.787601
0.787466
0.787332
0.787199
0.787067
0.786937
0.786807
0.786679
0.786552
0.786426
0.786301
0.786177
0.786054
0.785932
0.785811
0.785692
0.785573
0.785455
0.785338
0.785221
0.785114
0.925427
0.925381
0.925362
0.925365
0.925391
0.92544
0.925513
0.92561
0.925727
0.925859
0.925998
0.92614
0.926277
0.926403
0.926516
0.926611
0.926686
0.926739
0.92677
0.926779
0.926765
0.926729
0.926672
0.926595
0.926498
0.926383
0.92625
0.926102
0.925938
0.925761
0.925571
0.925369
0.925157
0.924934
0.924703
0.924464
0.924217
0.923964
0.923705
0.923441
0.923172
0.922899
0.922623
0.922344
0.922062
0.921778
0.921492
0.921205
0.920917
0.920628
0.920338
0.920049
0.919759
0.919469
0.91918
0.918892
0.918604
0.918317
0.918031
0.917746
0.917462
0.91718
0.916899
0.91662
0.916342
0.916066
0.915792
0.915519
0.915248
0.914979
0.914712
0.914447
0.914184
0.913922
0.913663
0.913406
0.91315
0.912897
0.912645
0.912396
0.912149
0.911903
0.91166
0.911418
0.911179
0.910942
0.910706
0.910473
0.910241
0.910012
0.909784
0.909559
0.909335
0.909113
0.908893
0.908675
0.908459
0.908245
0.908032
0.907822
0.907613
0.907406
0.9072
0.906997
0.906795
0.906595
0.906396
0.9062
0.906004
0.905811
0.905619
0.905429
0.90524
0.905053
0.904868
0.904684
0.904502
0.904321
0.904141
0.903963
0.903787
0.903612
0.903438
0.903266
0.903095
0.902926
0.902758
0.902591
0.902426
0.902262
0.902099
0.901937
0.901777
0.901618
0.901461
0.901304
0.901149
0.900995
0.900842
0.90069
0.900539
0.900389
0.900241
0.900093
0.899947
0.899802
0.899657
0.899514
0.899372
0.899239
1.04851
1.04849
1.0485
1.04855
1.04862
1.04873
1.04886
1.04902
1.04921
1.04943
1.04967
1.04992
1.05017
1.05043
1.05068
1.05091
1.05114
1.05134
1.05153
1.05169
1.05184
1.05196
1.05205
1.05212
1.05217
1.0522
1.0522
1.05219
1.05215
1.0521
1.05203
1.05194
1.05183
1.05172
1.05158
1.05144
1.05128
1.05111
1.05093
1.05074
1.05054
1.05033
1.05012
1.0499
1.04967
1.04944
1.0492
1.04895
1.04871
1.04845
1.0482
1.04794
1.04768
1.04741
1.04715
1.04688
1.04661
1.04634
1.04607
1.04579
1.04552
1.04525
1.04497
1.0447
1.04442
1.04415
1.04387
1.0436
1.04333
1.04305
1.04278
1.04251
1.04224
1.04197
1.0417
1.04143
1.04116
1.0409
1.04063
1.04037
1.04011
1.03985
1.03959
1.03933
1.03907
1.03881
1.03856
1.03831
1.03806
1.03781
1.03756
1.03731
1.03707
1.03682
1.03658
1.03634
1.0361
1.03586
1.03563
1.03539
1.03516
1.03493
1.0347
1.03447
1.03424
1.03401
1.03379
1.03357
1.03335
1.03313
1.03291
1.03269
1.03248
1.03226
1.03205
1.03184
1.03163
1.03143
1.03122
1.03101
1.03081
1.03061
1.03041
1.03021
1.03001
1.02981
1.02962
1.02942
1.02923
1.02904
1.02885
1.02866
1.02847
1.02829
1.0281
1.02792
1.02774
1.02755
1.02737
1.02719
1.02702
1.02684
1.02666
1.02649
1.02632
1.02614
1.02597
1.0258
1.02563
1.02547
1.18388
1.18388
1.18391
1.18398
1.18408
1.18421
1.18437
1.18457
1.1848
1.18506
1.18535
1.18566
1.18599
1.18634
1.18669
1.18703
1.18738
1.18771
1.18803
1.18834
1.18863
1.1889
1.18914
1.18936
1.18957
1.18974
1.1899
1.19003
1.19014
1.19023
1.1903
1.19034
1.19037
1.19038
1.19037
1.19034
1.1903
1.19024
1.19017
1.19008
1.18998
1.18987
1.18974
1.18961
1.18946
1.18931
1.18914
1.18897
1.18879
1.1886
1.18841
1.18821
1.188
1.18779
1.18757
1.18735
1.18712
1.18689
1.18665
1.18642
1.18617
1.18593
1.18568
1.18543
1.18518
1.18493
1.18467
1.18442
1.18416
1.1839
1.18364
1.18338
1.18311
1.18285
1.18259
1.18232
1.18206
1.18179
1.18153
1.18127
1.181
1.18074
1.18047
1.18021
1.17995
1.17969
1.17942
1.17916
1.1789
1.17864
1.17838
1.17812
1.17787
1.17761
1.17735
1.1771
1.17684
1.17659
1.17634
1.17609
1.17584
1.17559
1.17534
1.17509
1.17484
1.1746
1.17436
1.17411
1.17387
1.17363
1.17339
1.17316
1.17292
1.17268
1.17245
1.17222
1.17198
1.17175
1.17152
1.17129
1.17107
1.17084
1.17062
1.17039
1.17017
1.16995
1.16973
1.16951
1.16929
1.16908
1.16886
1.16865
1.16843
1.16822
1.16801
1.1678
1.16759
1.16738
1.16718
1.16697
1.16677
1.16657
1.16636
1.16616
1.16596
1.16576
1.16556
1.16537
1.16517
1.16499
1.33277
1.33277
1.33282
1.3329
1.33301
1.33316
1.33333
1.33354
1.33378
1.33405
1.33436
1.3347
1.33507
1.33545
1.33586
1.33628
1.3367
1.33713
1.33755
1.33797
1.33837
1.33877
1.33915
1.33951
1.33985
1.34017
1.34047
1.34075
1.34101
1.34124
1.34146
1.34165
1.34182
1.34197
1.34211
1.34222
1.34231
1.34238
1.34244
1.34248
1.3425
1.3425
1.34249
1.34247
1.34243
1.34238
1.34232
1.34224
1.34216
1.34206
1.34195
1.34184
1.34171
1.34157
1.34143
1.34128
1.34112
1.34095
1.34078
1.3406
1.34041
1.34022
1.34003
1.33983
1.33962
1.33941
1.3392
1.33898
1.33876
1.33853
1.3383
1.33807
1.33784
1.3376
1.33737
1.33712
1.33688
1.33664
1.33639
1.33614
1.33589
1.33564
1.33539
1.33514
1.33489
1.33463
1.33438
1.33412
1.33386
1.33361
1.33335
1.33309
1.33284
1.33258
1.33232
1.33206
1.3318
1.33155
1.33129
1.33103
1.33078
1.33052
1.33026
1.33001
1.32975
1.3295
1.32924
1.32899
1.32873
1.32848
1.32823
1.32798
1.32773
1.32748
1.32723
1.32698
1.32673
1.32648
1.32624
1.32599
1.32575
1.3255
1.32526
1.32502
1.32478
1.32454
1.3243
1.32406
1.32382
1.32358
1.32335
1.32311
1.32288
1.32264
1.32241
1.32218
1.32195
1.32172
1.32149
1.32126
1.32103
1.3208
1.32058
1.32035
1.32013
1.31991
1.31968
1.31946
1.31924
1.31903
1.49652
1.49653
1.49658
1.49667
1.49679
1.49694
1.49711
1.49732
1.49756
1.49783
1.49813
1.49847
1.49883
1.49923
1.49965
1.5001
1.50056
1.50104
1.50152
1.50201
1.50249
1.50298
1.50346
1.50393
1.50438
1.50483
1.50525
1.50567
1.50606
1.50643
1.50679
1.50712
1.50744
1.50773
1.50801
1.50826
1.5085
1.50871
1.50891
1.50909
1.50925
1.50939
1.50951
1.50962
1.50971
1.50978
1.50984
1.50988
1.50991
1.50993
1.50993
1.50992
1.5099
1.50987
1.50982
1.50976
1.5097
1.50962
1.50953
1.50944
1.50933
1.50922
1.5091
1.50897
1.50884
1.50869
1.50854
1.50839
1.50823
1.50806
1.50789
1.50771
1.50753
1.50734
1.50715
1.50695
1.50675
1.50655
1.50634
1.50613
1.50591
1.50569
1.50547
1.50525
1.50503
1.5048
1.50457
1.50433
1.5041
1.50386
1.50363
1.50339
1.50314
1.5029
1.50266
1.50241
1.50217
1.50192
1.50167
1.50142
1.50117
1.50092
1.50067
1.50042
1.50017
1.49991
1.49966
1.49941
1.49915
1.4989
1.49865
1.49839
1.49814
1.49788
1.49763
1.49737
1.49712
1.49687
1.49661
1.49636
1.49611
1.49585
1.4956
1.49535
1.49509
1.49484
1.49459
1.49434
1.49409
1.49384
1.49359
1.49334
1.49309
1.49284
1.49259
1.49235
1.4921
1.49185
1.49161
1.49136
1.49112
1.49087
1.49063
1.49038
1.49014
1.4899
1.48966
1.48941
1.48917
1.48895
1.67662
1.67663
1.67669
1.67678
1.6769
1.67705
1.67722
1.67743
1.67765
1.67791
1.67819
1.67851
1.67886
1.67924
1.67965
1.68009
1.68055
1.68104
1.68154
1.68205
1.68258
1.68312
1.68365
1.68419
1.68473
1.68526
1.68578
1.6863
1.6868
1.68729
1.68776
1.68822
1.68867
1.68909
1.6895
1.68989
1.69027
1.69062
1.69096
1.69127
1.69157
1.69186
1.69212
1.69236
1.69259
1.6928
1.693
1.69317
1.69333
1.69348
1.69361
1.69372
1.69382
1.69391
1.69398
1.69404
1.69409
1.69412
1.69414
1.69415
1.69415
1.69414
1.69412
1.69408
1.69404
1.69399
1.69393
1.69386
1.69378
1.69369
1.6936
1.69349
1.69338
1.69327
1.69314
1.69301
1.69288
1.69274
1.69259
1.69244
1.69228
1.69211
1.69195
1.69177
1.6916
1.69142
1.69123
1.69104
1.69085
1.69065
1.69045
1.69025
1.69004
1.68983
1.68962
1.68941
1.68919
1.68897
1.68875
1.68852
1.6883
1.68807
1.68784
1.68761
1.68737
1.68714
1.6869
1.68667
1.68643
1.68619
1.68594
1.6857
1.68546
1.68521
1.68497
1.68472
1.68447
1.68423
1.68398
1.68373
1.68348
1.68323
1.68298
1.68272
1.68247
1.68222
1.68197
1.68171
1.68146
1.68121
1.68095
1.6807
1.68045
1.68019
1.67994
1.67968
1.67943
1.67918
1.67892
1.67867
1.67841
1.67816
1.67791
1.67765
1.6774
1.67714
1.67689
1.67663
1.67638
1.67615
1.8747
1.87472
1.87477
1.87486
1.87498
1.87513
1.8753
1.8755
1.87571
1.87595
1.87622
1.87651
1.87683
1.87718
1.87756
1.87797
1.87841
1.87887
1.87936
1.87987
1.8804
1.88094
1.8815
1.88206
1.88264
1.88321
1.88379
1.88437
1.88494
1.88551
1.88608
1.88663
1.88718
1.88771
1.88823
1.88874
1.88923
1.88971
1.89017
1.89062
1.89105
1.89146
1.89186
1.89224
1.8926
1.89295
1.89328
1.89359
1.89389
1.89417
1.89443
1.89468
1.89491
1.89513
1.89533
1.89552
1.89569
1.89585
1.896
1.89613
1.89625
1.89635
1.89645
1.89653
1.8966
1.89665
1.8967
1.89673
1.89676
1.89677
1.89678
1.89677
1.89676
1.89673
1.8967
1.89666
1.89661
1.89655
1.89648
1.89641
1.89633
1.89624
1.89615
1.89605
1.89594
1.89583
1.89571
1.89558
1.89545
1.89531
1.89517
1.89503
1.89488
1.89472
1.89456
1.8944
1.89423
1.89406
1.89388
1.8937
1.89352
1.89333
1.89314
1.89295
1.89275
1.89255
1.89235
1.89214
1.89194
1.89173
1.89152
1.8913
1.89108
1.89086
1.89064
1.89042
1.8902
1.88997
1.88974
1.88951
1.88928
1.88905
1.88881
1.88857
1.88834
1.8881
1.88786
1.88762
1.88738
1.88713
1.88689
1.88664
1.8864
1.88615
1.8859
1.88565
1.8854
1.88515
1.8849
1.88465
1.8844
1.88415
1.88389
1.88364
1.88338
1.88313
1.88287
1.88261
1.88236
1.88212
2.09255
2.09257
2.09262
2.09271
2.09283
2.09297
2.09314
2.09333
2.09354
2.09377
2.09402
2.09429
2.09458
2.0949
2.09524
2.09561
2.09601
2.09643
2.09688
2.09736
2.09786
2.09838
2.09892
2.09947
2.10005
2.10063
2.10122
2.10183
2.10243
2.10304
2.10365
2.10426
2.10487
2.10547
2.10607
2.10666
2.10725
2.10782
2.10838
2.10893
2.10947
2.11
2.11051
2.11101
2.11149
2.11196
2.11242
2.11286
2.11329
2.1137
2.11409
2.11447
2.11484
2.11519
2.11552
2.11584
2.11614
2.11643
2.11671
2.11697
2.11722
2.11745
2.11767
2.11787
2.11807
2.11824
2.11841
2.11857
2.11871
2.11884
2.11896
2.11906
2.11916
2.11925
2.11932
2.11938
2.11944
2.11948
2.11952
2.11954
2.11956
2.11957
2.11957
2.11956
2.11954
2.11951
2.11948
2.11944
2.11939
2.11934
2.11927
2.11921
2.11913
2.11905
2.11896
2.11887
2.11877
2.11866
2.11855
2.11844
2.11832
2.11819
2.11806
2.11792
2.11778
2.11764
2.11749
2.11734
2.11718
2.11702
2.11686
2.11669
2.11652
2.11634
2.11616
2.11598
2.1158
2.11561
2.11542
2.11523
2.11503
2.11483
2.11463
2.11443
2.11422
2.11401
2.1138
2.11359
2.11337
2.11315
2.11293
2.11271
2.11249
2.11226
2.11204
2.11181
2.11158
2.11135
2.11111
2.11088
2.11064
2.1104
2.11016
2.10992
2.10968
2.10944
2.10919
2.10894
2.1087
2.10847
2.33215
2.33217
2.33222
2.3323
2.33241
2.33255
2.33272
2.3329
2.3331
2.33332
2.33356
2.33381
2.33408
2.33437
2.33468
2.33501
2.33537
2.33575
2.33615
2.33658
2.33703
2.33751
2.33801
2.33853
2.33907
2.33963
2.3402
2.34079
2.34139
2.342
2.34262
2.34325
2.34388
2.34451
2.34515
2.34579
2.34642
2.34705
2.34768
2.3483
2.34891
2.34952
2.35012
2.35071
2.35129
2.35186
2.35242
2.35297
2.3535