/*--------------------------------*- C++ -*----------------------------------*\
| =========                 |                                                 |
| \\      /  F ield         | OpenFOAM: The Open Source CFD Toolbox           |
|  \\    /   O peration     | Version:  5.x                                   |
|   \\  /    A nd           | Web:      www.OpenFOAM.org                      |
|    \\/     M anipulation  |                                                 |
\*---------------------------------------------------------------------------*/
FoamFile
{
    version     2.0;
    format      ascii;
    class       volScalarField;
    location    "0";
    object      epsilon;
}
// * * * * * * * * * * * * * * * * * * * * * * * * * * * * * * * * * * * * * //

dimensions      [0 2 -3 0 0 0 0];

internalField   nonuniform List<scalar> 
21600
(
12.4852
12.1395
11.9437
11.8542
11.8063
11.776
11.7561
11.7424
11.7329
11.7262
11.7216
11.7184
11.7163
11.715
11.7144
11.7142
11.7144
11.7149
11.7157
11.7167
11.7178
11.719
11.7203
11.7217
11.7232
11.7247
11.7262
11.7278
11.7293
11.7309
11.7325
11.7341
11.7357
11.7372
11.7388
11.7404
11.7419
11.7434
11.745
11.7465
11.7479
11.7494
11.7509
11.7523
11.7537
11.7551
11.7565
11.7579
11.7593
11.7606
11.762
11.7633
11.7646
11.7659
11.7671
11.7684
11.7696
11.7708
11.7721
11.7733
11.7744
11.7756
11.7768
11.7779
11.7791
11.7802
11.7813
11.7824
11.7835
11.7845
11.7856
11.7866
11.7877
11.7887
11.7897
11.7907
11.7917
11.7927
11.7936
11.7946
11.7955
11.7965
11.7974
11.7983
11.7992
11.8001
11.8009
11.8018
11.8027
11.8035
11.8043
11.8051
11.806
11.8068
11.8075
11.8083
11.8091
11.8098
11.8106
11.8113
11.8121
11.8128
11.8135
11.8142
11.8149
11.8155
11.8162
11.8168
11.8175
11.8181
11.8187
11.8193
11.8199
11.8205
11.8211
11.8217
11.8222
11.8228
11.8233
11.8238
11.8243
11.8248
11.8253
11.8258
11.8263
11.8267
11.8271
11.8276
11.828
11.8284
11.8288
11.8291
11.8295
11.8298
11.8302
11.8305
11.8308
11.831
11.8313
11.8316
11.8318
11.832
11.8322
11.8324
11.8325
11.8326
11.8326
11.8329
11.8328
11.8334
4.63404
4.71016
4.70075
4.6843
4.67238
4.66429
4.65887
4.65526
4.65295
4.65147
4.65062
4.65023
4.65017
4.65037
4.65075
4.65127
4.6519
4.65261
4.65338
4.6542
4.65505
4.65592
4.65681
4.65771
4.65861
4.65951
4.6604
4.66129
4.66217
4.66305
4.66391
4.66476
4.66559
4.66642
4.66723
4.66803
4.66882
4.66959
4.67036
4.67111
4.67184
4.67257
4.67328
4.67398
4.67467
4.67535
4.67602
4.67668
4.67733
4.67796
4.67859
4.67921
4.67982
4.68042
4.68101
4.68159
4.68217
4.68273
4.68329
4.68384
4.68438
4.68492
4.68545
4.68597
4.68648
4.68699
4.68749
4.68798
4.68847
4.68895
4.68942
4.68989
4.69035
4.69081
4.69126
4.6917
4.69214
4.69257
4.693
4.69342
4.69384
4.69425
4.69466
4.69506
4.69545
4.69584
4.69623
4.69661
4.69698
4.69735
4.69772
4.69808
4.69843
4.69878
4.69913
4.69947
4.6998
4.70014
4.70046
4.70079
4.7011
4.70142
4.70172
4.70203
4.70233
4.70262
4.70291
4.7032
4.70348
4.70376
4.70403
4.7043
4.70456
4.70482
4.70507
4.70532
4.70556
4.7058
4.70604
4.70627
4.70649
4.70671
4.70693
4.70714
4.70735
4.70755
4.70774
4.70793
4.70812
4.7083
4.70847
4.70864
4.7088
4.70896
4.70911
4.70926
4.7094
4.70953
4.70965
4.70978
4.70989
4.70999
4.71009
4.71018
4.71025
4.71034
4.71039
4.71046
4.71049
4.7106
2.49725
2.55198
2.56227
2.56145
2.55876
2.55637
2.55459
2.55338
2.55263
2.55223
2.55208
2.55212
2.55232
2.55264
2.55304
2.5535
2.55401
2.55455
2.55512
2.55571
2.55631
2.55692
2.55753
2.55814
2.55874
2.55935
2.55994
2.56054
2.56112
2.56169
2.56226
2.56281
2.56336
2.5639
2.56442
2.56494
2.56545
2.56595
2.56644
2.56692
2.56739
2.56785
2.5683
2.56875
2.56919
2.56962
2.57004
2.57045
2.57086
2.57126
2.57165
2.57204
2.57242
2.5728
2.57316
2.57353
2.57388
2.57423
2.57458
2.57492
2.57525
2.57558
2.57591
2.57623
2.57654
2.57685
2.57716
2.57746
2.57776
2.57805
2.57834
2.57863
2.57891
2.57919
2.57946
2.57973
2.58
2.58026
2.58052
2.58077
2.58103
2.58128
2.58152
2.58176
2.582
2.58224
2.58247
2.5827
2.58293
2.58315
2.58337
2.58359
2.5838
2.58401
2.58422
2.58443
2.58463
2.58483
2.58502
2.58522
2.58541
2.5856
2.58579
2.58597
2.58615
2.58633
2.5865
2.58668
2.58685
2.58701
2.58718
2.58734
2.5875
2.58766
2.58781
2.58796
2.58811
2.58826
2.5884
2.58854
2.58868
2.58882
2.58895
2.58908
2.58921
2.58933
2.58946
2.58958
2.58969
2.5898
2.58991
2.59002
2.59013
2.59023
2.59033
2.59042
2.59051
2.5906
2.59069
2.59077
2.59084
2.59092
2.59099
2.59106
2.59112
2.59118
2.59123
2.59128
2.59132
2.59135
1.63883
1.66298
1.66941
1.67032
1.66954
1.66849
1.66759
1.66694
1.6665
1.66627
1.66619
1.66624
1.66638
1.6666
1.66688
1.6672
1.66756
1.66794
1.66834
1.66875
1.66918
1.66961
1.67005
1.67049
1.67092
1.67136
1.67179
1.67222
1.67264
1.67306
1.67347
1.67388
1.67428
1.67467
1.67506
1.67544
1.67581
1.67618
1.67653
1.67689
1.67723
1.67757
1.67791
1.67823
1.67855
1.67887
1.67918
1.67948
1.67978
1.68008
1.68036
1.68065
1.68093
1.6812
1.68147
1.68173
1.68199
1.68225
1.6825
1.68275
1.68299
1.68324
1.68347
1.6837
1.68393
1.68416
1.68438
1.6846
1.68482
1.68503
1.68524
1.68545
1.68565
1.68585
1.68605
1.68625
1.68644
1.68663
1.68682
1.687
1.68718
1.68736
1.68754
1.68771
1.68789
1.68806
1.68822
1.68839
1.68855
1.68871
1.68887
1.68903
1.68918
1.68933
1.68948
1.68963
1.68978
1.68992
1.69007
1.69021
1.69034
1.69048
1.69061
1.69075
1.69088
1.69101
1.69113
1.69126
1.69138
1.6915
1.69162
1.69174
1.69186
1.69197
1.69208
1.6922
1.6923
1.69241
1.69252
1.69262
1.69272
1.69282
1.69292
1.69302
1.69311
1.6932
1.6933
1.69338
1.69347
1.69356
1.69364
1.69372
1.6938
1.69388
1.69396
1.69403
1.6941
1.69417
1.69424
1.6943
1.69437
1.69443
1.69449
1.69454
1.6946
1.69465
1.6947
1.69474
1.69478
1.69481
1.19328
1.20148
1.20301
1.20228
1.20096
1.19966
1.19858
1.19774
1.19712
1.19669
1.19642
1.19627
1.19621
1.19623
1.19632
1.19645
1.19662
1.19682
1.19704
1.19729
1.19755
1.19783
1.19811
1.1984
1.1987
1.19899
1.19929
1.1996
1.1999
1.20019
1.20049
1.20079
1.20108
1.20137
1.20165
1.20194
1.20221
1.20249
1.20276
1.20302
1.20328
1.20354
1.2038
1.20405
1.20429
1.20453
1.20477
1.205
1.20523
1.20546
1.20568
1.2059
1.20612
1.20633
1.20654
1.20674
1.20695
1.20714
1.20734
1.20753
1.20772
1.20791
1.20809
1.20828
1.20845
1.20863
1.2088
1.20897
1.20914
1.20931
1.20947
1.20963
1.20979
1.20995
1.2101
1.21026
1.21041
1.21056
1.2107
1.21085
1.21099
1.21113
1.21127
1.2114
1.21154
1.21167
1.2118
1.21193
1.21206
1.21218
1.21231
1.21243
1.21255
1.21267
1.21279
1.21291
1.21302
1.21313
1.21325
1.21336
1.21346
1.21357
1.21368
1.21378
1.21388
1.21399
1.21409
1.21418
1.21428
1.21438
1.21447
1.21457
1.21466
1.21475
1.21484
1.21493
1.21501
1.2151
1.21518
1.21527
1.21535
1.21543
1.21551
1.21558
1.21566
1.21574
1.21581
1.21588
1.21595
1.21602
1.21609
1.21616
1.21622
1.21629
1.21635
1.21641
1.21647
1.21653
1.21659
1.21665
1.2167
1.21675
1.2168
1.21685
1.2169
1.21695
1.217
1.21704
1.21708
1.2171
0.922139
0.923956
0.92277
0.920634
0.918457
0.916562
0.915012
0.913787
0.912826
0.912086
0.911522
0.9111
0.910791
0.910575
0.910434
0.910354
0.910326
0.91034
0.910389
0.910467
0.910569
0.910691
0.91083
0.910982
0.911146
0.911319
0.911499
0.911685
0.911875
0.912069
0.912266
0.912464
0.912663
0.912863
0.913063
0.913262
0.913461
0.913658
0.913854
0.914049
0.914242
0.914433
0.914622
0.914809
0.914994
0.915177
0.915357
0.915536
0.915712
0.915886
0.916057
0.916227
0.916394
0.916559
0.916721
0.916882
0.91704
0.917196
0.91735
0.917502
0.917652
0.917799
0.917945
0.918089
0.918231
0.918371
0.918509
0.918645
0.918779
0.918912
0.919043
0.919172
0.919299
0.919425
0.919549
0.919671
0.919792
0.919911
0.920029
0.920145
0.920259
0.920372
0.920484
0.920594
0.920703
0.92081
0.920916
0.921021
0.921125
0.921227
0.921327
0.921427
0.921525
0.921622
0.921718
0.921812
0.921905
0.921998
0.922089
0.922178
0.922267
0.922355
0.922441
0.922526
0.922611
0.922694
0.922776
0.922857
0.922937
0.923016
0.923094
0.923171
0.923246
0.923321
0.923395
0.923468
0.92354
0.923611
0.923681
0.92375
0.923818
0.923885
0.923951
0.924016
0.92408
0.924143
0.924205
0.924266
0.924326
0.924386
0.924444
0.924501
0.924557
0.924613
0.924667
0.92472
0.924773
0.924824
0.924874
0.924923
0.924972
0.925019
0.925065
0.92511
0.925154
0.925197
0.925239
0.925281
0.925317
0.925345
0.73945
0.739287
0.737247
0.734564
0.731944
0.729655
0.727736
0.72616
0.724874
0.72383
0.722983
0.722297
0.721744
0.721298
0.720943
0.720663
0.720445
0.720281
0.720162
0.720081
0.720032
0.720012
0.720015
0.720039
0.72008
0.720136
0.720205
0.720285
0.720374
0.720471
0.720575
0.720685
0.7208
0.720918
0.72104
0.721164
0.721291
0.721419
0.721549
0.721679
0.721811
0.721942
0.722074
0.722206
0.722337
0.722468
0.722599
0.722728
0.722858
0.722986
0.723113
0.72324
0.723365
0.723489
0.723613
0.723735
0.723856
0.723976
0.724094
0.724212
0.724328
0.724443
0.724556
0.724669
0.72478
0.72489
0.724999
0.725107
0.725213
0.725318
0.725422
0.725525
0.725627
0.725727
0.725826
0.725925
0.726022
0.726117
0.726212
0.726306
0.726398
0.72649
0.72658
0.72667
0.726758
0.726846
0.726932
0.727017
0.727101
0.727185
0.727267
0.727349
0.727429
0.727508
0.727587
0.727665
0.727741
0.727817
0.727892
0.727966
0.72804
0.728112
0.728184
0.728254
0.728324
0.728393
0.728461
0.728529
0.728595
0.728661
0.728726
0.72879
0.728854
0.728917
0.728979
0.72904
0.7291
0.72916
0.729219
0.729277
0.729334
0.729391
0.729447
0.729502
0.729557
0.72961
0.729663
0.729716
0.729767
0.729818
0.729868
0.729918
0.729966
0.730014
0.730062
0.730108
0.730154
0.730199
0.730243
0.730287
0.730329
0.730371
0.730413
0.730453
0.730493
0.730532
0.73057
0.730609
0.730643
0.730672
0.60784
0.60734
0.605433
0.602917
0.600336
0.597971
0.5959
0.59413
0.592633
0.591371
0.59031
0.589415
0.588661
0.588025
0.587487
0.587034
0.586653
0.586332
0.586065
0.585843
0.58566
0.585512
0.585394
0.585301
0.585232
0.585182
0.58515
0.585133
0.58513
0.585139
0.585159
0.585187
0.585224
0.585268
0.585318
0.585374
0.585434
0.585499
0.585568
0.585639
0.585714
0.585791
0.58587
0.585951
0.586033
0.586117
0.586201
0.586287
0.586373
0.58646
0.586547
0.586634
0.586721
0.586809
0.586897
0.586984
0.587071
0.587158
0.587245
0.587331
0.587417
0.587503
0.587588
0.587672
0.587756
0.58784
0.587922
0.588005
0.588086
0.588167
0.588248
0.588327
0.588406
0.588484
0.588562
0.588639
0.588715
0.588791
0.588866
0.58894
0.589013
0.589086
0.589158
0.58923
0.5893
0.58937
0.58944
0.589508
0.589576
0.589644
0.58971
0.589776
0.589841
0.589906
0.58997
0.590033
0.590096
0.590158
0.590219
0.59028
0.59034
0.5904
0.590459
0.590517
0.590575
0.590632
0.590688
0.590744
0.590799
0.590854
0.590908
0.590961
0.591014
0.591067
0.591119
0.59117
0.591221
0.591271
0.59132
0.591369
0.591418
0.591466
0.591513
0.59156
0.591606
0.591652
0.591697
0.591742
0.591786
0.591829
0.591872
0.591915
0.591957
0.591998
0.592039
0.59208
0.59212
0.592159
0.592198
0.592236
0.592274
0.592311
0.592347
0.592384
0.592419
0.592454
0.592489
0.592523
0.592554
0.592582
0.508589
0.508214
0.506809
0.504802
0.502582
0.500415
0.49842
0.49664
0.495077
0.493716
0.492535
0.49151
0.490621
0.489849
0.489177
0.488592
0.488082
0.487637
0.487249
0.486911
0.486617
0.486361
0.486139
0.485947
0.485782
0.48564
0.48552
0.485419
0.485334
0.485264
0.485208
0.485164
0.485131
0.485108
0.485094
0.485087
0.485088
0.485095
0.485107
0.485125
0.485148
0.485174
0.485205
0.485239
0.485276
0.485316
0.485358
0.485403
0.485449
0.485497
0.485547
0.485598
0.485651
0.485704
0.485758
0.485814
0.48587
0.485926
0.485983
0.486041
0.486099
0.486157
0.486216
0.486274
0.486333
0.486392
0.486451
0.48651
0.486569
0.486627
0.486686
0.486744
0.486802
0.48686
0.486918
0.486976
0.487033
0.48709
0.487147
0.487203
0.487259
0.487315
0.48737
0.487425
0.48748
0.487534
0.487588
0.487642
0.487695
0.487747
0.4878
0.487852
0.487903
0.487954
0.488005
0.488056
0.488105
0.488155
0.488204
0.488253
0.488301
0.488349
0.488396
0.488444
0.48849
0.488536
0.488582
0.488628
0.488673
0.488718
0.488762
0.488806
0.488849
0.488892
0.488935
0.488977
0.489019
0.48906
0.489102
0.489142
0.489183
0.489223
0.489262
0.489301
0.48934
0.489378
0.489417
0.489454
0.489491
0.489528
0.489565
0.489601
0.489637
0.489672
0.489707
0.489742
0.489776
0.48981
0.489843
0.489876
0.489909
0.489941
0.489973
0.490005
0.490036
0.490067
0.490098
0.490128
0.490156
0.490182
0.43125
0.43105
0.430152
0.428727
0.427012
0.425214
0.423464
0.421829
0.420336
0.418993
0.417792
0.416722
0.415771
0.414926
0.414174
0.413504
0.412907
0.412375
0.411899
0.411475
0.411095
0.410755
0.410451
0.410179
0.409936
0.409719
0.409526
0.409353
0.409199
0.409063
0.408942
0.408836
0.408742
0.40866
0.408589
0.408527
0.408475
0.40843
0.408393
0.408363
0.408339
0.40832
0.408307
0.408298
0.408294
0.408294
0.408298
0.408305
0.408315
0.408327
0.408343
0.408361
0.408381
0.408403
0.408426
0.408452
0.408479
0.408507
0.408537
0.408568
0.4086
0.408633
0.408667
0.408701
0.408736
0.408772
0.408809
0.408846
0.408883
0.408921
0.408959
0.408998
0.409037
0.409076
0.409115
0.409155
0.409194
0.409234
0.409273
0.409313
0.409353
0.409393
0.409432
0.409472
0.409512
0.409551
0.409591
0.40963
0.40967
0.409709
0.409748
0.409787
0.409826
0.409864
0.409903
0.409941
0.409979
0.410017
0.410054
0.410092
0.410129
0.410166
0.410203
0.41024
0.410276
0.410313
0.410348
0.410384
0.41042
0.410455
0.41049
0.410525
0.41056
0.410594
0.410628
0.410662
0.410696
0.410729
0.410762
0.410795
0.410828
0.41086
0.410892
0.410924
0.410956
0.410987
0.411019
0.41105
0.41108
0.411111
0.411141
0.411171
0.411201
0.41123
0.411259
0.411288
0.411317
0.411345
0.411374
0.411402
0.411429
0.411457
0.411484
0.411511
0.411538
0.411565
0.411591
0.411617
0.411641
0.411664
0.369491
0.369411
0.368896
0.367975
0.366762
0.365395
0.36398
0.362592
0.361272
0.360042
0.358908
0.357872
0.356929
0.356071
0.355294
0.354588
0.353948
0.353367
0.352839
0.352359
0.351922
0.351524
0.351162
0.350832
0.350531
0.350257
0.350006
0.349778
0.349569
0.349379
0.349206
0.349048
0.348904
0.348773
0.348654
0.348546
0.348448
0.348359
0.348279
0.348207
0.348142
0.348084
0.348032
0.347986
0.347945
0.34791
0.347878
0.347852
0.347829
0.34781
0.347794
0.347782
0.347772
0.347765
0.347761
0.34776
0.34776
0.347763
0.347767
0.347773
0.347781
0.347791
0.347802
0.347814
0.347827
0.347842
0.347858
0.347874
0.347892
0.34791
0.34793
0.34795
0.34797
0.347992
0.348013
0.348036
0.348059
0.348082
0.348106
0.34813
0.348155
0.348179
0.348204
0.34823
0.348255
0.348281
0.348307
0.348333
0.348359
0.348386
0.348412
0.348439
0.348466
0.348492
0.348519
0.348546
0.348573
0.3486
0.348627
0.348654
0.34868
0.348707
0.348734
0.348761
0.348788
0.348814
0.348841
0.348868
0.348894
0.34892
0.348947
0.348973
0.348999
0.349025
0.349051
0.349077
0.349103
0.349129
0.349154
0.34918
0.349205
0.34923
0.349255
0.34928
0.349305
0.34933
0.349354
0.349379
0.349403
0.349427
0.349452
0.349475
0.349499
0.349523
0.349547
0.34957
0.349593
0.349616
0.349639
0.349662
0.349685
0.349708
0.34973
0.349753
0.349775
0.349797
0.349819
0.349841
0.349861
0.34988
0.319225
0.319206
0.318937
0.318388
0.317596
0.316633
0.315573
0.314477
0.313388
0.312335
0.311334
0.310393
0.309515
0.308701
0.307947
0.307251
0.306608
0.306016
0.305469
0.304966
0.304501
0.304071
0.303675
0.303309
0.30297
0.302657
0.302368
0.302099
0.301851
0.301621
0.301408
0.301211
0.301028
0.300859
0.300702
0.300556
0.300422
0.300297
0.300181
0.300074
0.299975
0.299884
0.299799
0.299721
0.299649
0.299583
0.299522
0.299466
0.299414
0.299367
0.299324
0.299285
0.299249
0.299217
0.299188
0.299162
0.299139
0.299118
0.299099
0.299083
0.299069
0.299058
0.299048
0.29904
0.299033
0.299028
0.299025
0.299023
0.299022
0.299023
0.299024
0.299027
0.299031
0.299036
0.299042
0.299048
0.299056
0.299064
0.299073
0.299082
0.299093
0.299103
0.299115
0.299127
0.299139
0.299152
0.299165
0.299179
0.299193
0.299207
0.299222
0.299237
0.299252
0.299268
0.299283
0.299299
0.299316
0.299332
0.299349
0.299366
0.299383
0.2994
0.299417
0.299434
0.299452
0.29947
0.299487
0.299505
0.299523
0.299541
0.299559
0.299577
0.299595
0.299613
0.299631
0.299649
0.299668
0.299686
0.299704
0.299722
0.299741
0.299759
0.299777
0.299796
0.299814
0.299832
0.29985
0.299868
0.299887
0.299905
0.299923
0.299941
0.299959
0.299977
0.299995
0.300013
0.300031
0.300049
0.300066
0.300084
0.300102
0.30012
0.300137
0.300155
0.300173
0.30019
0.300208
0.300225
0.300241
0.300257
0.277682
0.277687
0.277559
0.277255
0.276774
0.276143
0.275402
0.274593
0.273753
0.272908
0.272077
0.271272
0.270503
0.269772
0.269082
0.268433
0.267824
0.267254
0.26672
0.266221
0.265755
0.265319
0.264912
0.264531
0.264175
0.263843
0.263531
0.26324
0.262967
0.262712
0.262473
0.262248
0.262038
0.261842
0.261657
0.261484
0.261321
0.261169
0.261026
0.260892
0.260766
0.260648
0.260537
0.260433
0.260336
0.260244
0.260158
0.260078
0.260002
0.259932
0.259866
0.259804
0.259746
0.259691
0.259641
0.259593
0.259549
0.259508
0.25947
0.259434
0.259401
0.25937
0.259342
0.259315
0.259291
0.259269
0.259248
0.259229
0.259212
0.259196
0.259182
0.25917
0.259158
0.259148
0.259139
0.259131
0.259124
0.259119
0.259114
0.25911
0.259107
0.259105
0.259103
0.259103
0.259103
0.259104
0.259105
0.259107
0.25911
0.259113
0.259116
0.259121
0.259125
0.25913
0.259136
0.259142
0.259148
0.259155
0.259162
0.259169
0.259177
0.259185
0.259193
0.259201
0.25921
0.259219
0.259228
0.259238
0.259248
0.259257
0.259267
0.259278
0.259288
0.259299
0.259309
0.25932
0.259331
0.259342
0.259354
0.259365
0.259376
0.259388
0.2594
0.259412
0.259423
0.259435
0.259447
0.259459
0.259472
0.259484
0.259496
0.259508
0.259521
0.259533
0.259546
0.259558
0.259571
0.259584
0.259596
0.259609
0.259622
0.259635
0.259648
0.25966
0.259673
0.259686
0.259699
0.259712
0.259724
0.259736
0.242916
0.242928
0.24287
0.242713
0.24244
0.242053
0.241569
0.241011
0.240402
0.239765
0.239115
0.238467
0.237829
0.237209
0.236611
0.236037
0.235489
0.234968
0.234473
0.234003
0.233559
0.233139
0.232742
0.232366
0.232012
0.231677
0.231361
0.231062
0.230779
0.230512
0.23026
0.230022
0.229796
0.229583
0.229381
0.22919
0.22901
0.228839
0.228677
0.228523
0.228378
0.228241
0.22811
0.227987
0.22787
0.227759
0.227654
0.227554
0.22746
0.22737
0.227285
0.227205
0.227129
0.227056
0.226988
0.226923
0.226861
0.226803
0.226748
0.226695
0.226646
0.226599
0.226554
0.226512
0.226473
0.226435
0.226399
0.226366
0.226334
0.226304
0.226276
0.22625
0.226225
0.226201
0.226179
0.226158
0.226139
0.22612
0.226103
0.226087
0.226072
0.226058
0.226045
0.226033
0.226022
0.226012
0.226003
0.225994
0.225986
0.225979
0.225972
0.225967
0.225961
0.225957
0.225953
0.225949
0.225946
0.225944
0.225942
0.225941
0.22594
0.225939
0.225939
0.225939
0.22594
0.22594
0.225942
0.225943
0.225945
0.225948
0.22595
0.225953
0.225956
0.22596
0.225963
0.225967
0.225971
0.225976
0.22598
0.225985
0.22599
0.225995
0.226001
0.226006
0.226012
0.226018
0.226024
0.22603
0.226037
0.226043
0.22605
0.226057
0.226064
0.226071
0.226078
0.226085
0.226093
0.2261
0.226108
0.226116
0.226124
0.226132
0.22614
0.226148
0.226156
0.226165
0.226173
0.226182
0.226189
0.226197
0.213515
0.213525
0.213501
0.213425
0.213279
0.213057
0.21276
0.212399
0.211985
0.211532
0.211054
0.21056
0.210061
0.209562
0.20907
0.208588
0.20812
0.207666
0.207229
0.206808
0.206405
0.206018
0.205649
0.205296
0.204959
0.204637
0.204331
0.204039
0.20376
0.203495
0.203242
0.203001
0.202771
0.202552
0.202343
0.202144
0.201955
0.201774
0.201601
0.201437
0.20128
0.20113
0.200987
0.200851
0.200721
0.200596
0.200478
0.200364
0.200256
0.200153
0.200054
0.199959
0.199869
0.199783
0.199701
0.199622
0.199546
0.199475
0.199406
0.19934
0.199277
0.199217
0.199159
0.199104
0.199052
0.199002
0.198953
0.198908
0.198864
0.198822
0.198781
0.198743
0.198706
0.198671
0.198638
0.198606
0.198575
0.198546
0.198518
0.198491
0.198466
0.198442
0.198419
0.198396
0.198375
0.198355
0.198336
0.198318
0.198301
0.198284
0.198269
0.198254
0.19824
0.198226
0.198214
0.198202
0.19819
0.19818
0.19817
0.19816
0.198151
0.198143
0.198135
0.198127
0.19812
0.198114
0.198108
0.198102
0.198097
0.198092
0.198088
0.198084
0.19808
0.198077
0.198074
0.198072
0.198069
0.198067
0.198066
0.198064
0.198063
0.198062
0.198062
0.198062
0.198061
0.198062
0.198062
0.198063
0.198064
0.198065
0.198066
0.198068
0.198069
0.198071
0.198073
0.198076
0.198078
0.198081
0.198084
0.198087
0.19809
0.198093
0.198097
0.198101
0.198105
0.198109
0.198113
0.198117
0.198121
0.198124
0.188432
0.188438
0.188428
0.188392
0.188318
0.188198
0.188027
0.187808
0.187543
0.187241
0.186909
0.186554
0.186184
0.185805
0.185421
0.185037
0.184656
0.18428
0.183912
0.183552
0.183202
0.182863
0.182534
0.182217
0.18191
0.181615
0.181331
0.181057
0.180795
0.180542
0.180299
0.180066
0.179842
0.179627
0.179421
0.179223
0.179033
0.178851
0.178676
0.178507
0.178346
0.178191
0.178042
0.1779
0.177762
0.177631
0.177504
0.177383
0.177266
0.177154
0.177046
0.176942
0.176842
0.176747
0.176654
0.176566
0.176481
0.176399
0.17632
0.176244
0.176171
0.176101
0.176033
0.175968
0.175906
0.175846
0.175788
0.175732
0.175678
0.175626
0.175576
0.175528
0.175482
0.175437
0.175394
0.175353
0.175313
0.175275
0.175238
0.175202
0.175168
0.175135
0.175103
0.175072
0.175043
0.175014
0.174987
0.17496
0.174935
0.17491
0.174887
0.174864
0.174842
0.174821
0.174801
0.174781
0.174762
0.174744
0.174727
0.17471
0.174694
0.174678
0.174664
0.174649
0.174636
0.174622
0.17461
0.174598
0.174586
0.174575
0.174564
0.174554
0.174544
0.174535
0.174526
0.174517
0.174509
0.174501
0.174494
0.174487
0.17448
0.174474
0.174468
0.174462
0.174457
0.174452
0.174447
0.174442
0.174438
0.174434
0.17443
0.174427
0.174424
0.174421
0.174418
0.174416
0.174414
0.174412
0.17441
0.174409
0.174407
0.174406
0.174406
0.174405
0.174405
0.174404
0.174404
0.174404
0.174404
0.174404
0.16687
0.166873
0.166868
0.166852
0.166815
0.166754
0.166661
0.166535
0.166376
0.166186
0.165969
0.165729
0.16547
0.165196
0.164913
0.164622
0.164328
0.164032
0.163736
0.163443
0.163153
0.162868
0.162589
0.162316
0.162049
0.161789
0.161537
0.161291
0.161053
0.160823
0.160599
0.160383
0.160174
0.159971
0.159776
0.159587
0.159404
0.159227
0.159057
0.158892
0.158733
0.15858
0.158432
0.158289
0.15815
0.158017
0.157888
0.157764
0.157644
0.157527
0.157415
0.157307
0.157202
0.157101
0.157004
0.156909
0.156818
0.15673
0.156645
0.156562
0.156483
0.156406
0.156331
0.156259
0.156189
0.156122
0.156057
0.155994
0.155933
0.155874
0.155816
0.155761
0.155707
0.155655
0.155605
0.155557
0.155509
0.155464
0.15542
0.155377
0.155335
0.155295
0.155256
0.155218
0.155182
0.155146
0.155112
0.155079
0.155046
0.155015
0.154985
0.154955
0.154927
0.154899
0.154872
0.154846
0.154821
0.154797
0.154773
0.15475
0.154728
0.154706
0.154685
0.154665
0.154645
0.154626
0.154608
0.15459
0.154573
0.154556
0.15454
0.154524
0.154508
0.154494
0.154479
0.154465
0.154452
0.154439
0.154426
0.154414
0.154403
0.154391
0.15438
0.15437
0.154359
0.154349
0.15434
0.154331
0.154322
0.154313
0.154305
0.154297
0.154289
0.154282
0.154275
0.154268
0.154262
0.154255
0.15425
0.154244
0.154238
0.154233
0.154228
0.154224
0.154219
0.154215
0.154211
0.154208
0.154204
0.1542
0.148215
0.148216
0.148213
0.148205
0.148187
0.148157
0.148109
0.148041
0.14795
0.147838
0.147704
0.147551
0.14738
0.147194
0.146995
0.146787
0.146571
0.146349
0.146124
0.145896
0.145668
0.14544
0.145213
0.144988
0.144766
0.144547
0.144332
0.144121
0.143914
0.143712
0.143514
0.143321
0.143133
0.14295
0.142772
0.142598
0.142429
0.142265
0.142105
0.14195
0.1418
0.141654
0.141512
0.141374
0.14124
0.14111
0.140984
0.140862
0.140743
0.140628
0.140516
0.140407
0.140302
0.1402
0.1401
0.140004
0.139911
0.13982
0.139732
0.139646
0.139563
0.139483
0.139404
0.139328
0.139255
0.139183
0.139113
0.139046
0.13898
0.138916
0.138854
0.138794
0.138735
0.138678
0.138623
0.138569
0.138517
0.138466
0.138416
0.138368
0.138321
0.138276
0.138231
0.138188
0.138146
0.138105
0.138066
0.138027
0.137989
0.137953
0.137917
0.137882
0.137848
0.137815
0.137783
0.137752
0.137722
0.137692
0.137663
0.137635
0.137608
0.137581
0.137555
0.13753
0.137505
0.137481
0.137458
0.137435
0.137413
0.137391
0.13737
0.13735
0.13733
0.13731
0.137291
0.137273
0.137255
0.137237
0.13722
0.137204
0.137188
0.137172
0.137156
0.137141
0.137127
0.137113
0.137099
0.137086
0.137073
0.13706
0.137047
0.137035
0.137024
0.137012
0.137001
0.136991
0.13698
0.13697
0.136961
0.136951
0.136942
0.136933
0.136925
0.136916
0.136908
0.1369
0.136893
0.136886
0.136878
0.136871
0.131985
0.131985
0.131983
0.131978
0.131969
0.131954
0.13193
0.131895
0.131847
0.131784
0.131706
0.131614
0.131507
0.131388
0.131257
0.131115
0.130965
0.130808
0.130645
0.130477
0.130305
0.130131
0.129955
0.129778
0.129601
0.129425
0.12925
0.129076
0.128904
0.128734
0.128566
0.128401
0.128239
0.128079
0.127923
0.12777
0.127619
0.127472
0.127329
0.127188
0.127051
0.126916
0.126785
0.126657
0.126532
0.126411
0.126292
0.126176
0.126063
0.125952
0.125845
0.12574
0.125638
0.125538
0.125441
0.125347
0.125255
0.125165
0.125077
0.124992
0.124909
0.124828
0.124749
0.124672
0.124597
0.124524
0.124452
0.124383
0.124315
0.124249
0.124184
0.124121
0.12406
0.124
0.123942
0.123885
0.12383
0.123776
0.123723
0.123671
0.123621
0.123572
0.123524
0.123477
0.123431
0.123387
0.123343
0.123301
0.123259
0.123219
0.123179
0.123141
0.123103
0.123066
0.12303
0.122995
0.122961
0.122927
0.122894
0.122862
0.122831
0.1228
0.12277
0.122741
0.122713
0.122685
0.122657
0.122631
0.122605
0.122579
0.122554
0.12253
0.122506
0.122483
0.12246
0.122437
0.122416
0.122394
0.122374
0.122353
0.122333
0.122314
0.122295
0.122276
0.122258
0.12224
0.122223
0.122206
0.122189
0.122173
0.122157
0.122142
0.122127
0.122112
0.122097
0.122083
0.122069
0.122056
0.122043
0.12203
0.122018
0.122005
0.121994
0.121982
0.121971
0.12196
0.121949
0.121939
0.121928
0.121919
0.117797
0.117797
0.117794
0.117791
0.117786
0.117778
0.117766
0.117749
0.117724
0.117691
0.117648
0.117595
0.117533
0.117461
0.117379
0.117288
0.11719
0.117084
0.116972
0.116854
0.116732
0.116605
0.116476
0.116343
0.116209
0.116074
0.115937
0.1158
0.115663
0.115526
0.11539
0.115254
0.11512
0.114987
0.114855
0.114725
0.114596
0.11447
0.114345
0.114222
0.114102
0.113983
0.113866
0.113752
0.113639
0.113529
0.113421
0.113315
0.113211
0.11311
0.11301
0.112912
0.112817
0.112723
0.112632
0.112542
0.112454
0.112369
0.112285
0.112202
0.112122
0.112043
0.111966
0.111891
0.111818
0.111746
0.111675
0.111606
0.111539
0.111473
0.111408
0.111345
0.111283
0.111223
0.111164
0.111106
0.11105
0.110994
0.11094
0.110887
0.110835
0.110784
0.110735
0.110686
0.110638
0.110592
0.110546
0.110501
0.110458
0.110415
0.110373
0.110332
0.110292
0.110252
0.110214
0.110176
0.110139
0.110103
0.110067
0.110032
0.109998
0.109965
0.109932
0.1099
0.109868
0.109838
0.109807
0.109778
0.109749
0.10972
0.109693
0.109665
0.109638
0.109612
0.109587
0.109561
0.109537
0.109512
0.109489
0.109465
0.109442
0.10942
0.109398
0.109376
0.109355
0.109335
0.109314
0.109294
0.109275
0.109256
0.109237
0.109219
0.109201
0.109183
0.109166
0.109149
0.109132
0.109116
0.1091
0.109084
0.109069
0.109054
0.10904
0.109025
0.109011
0.108998
0.108984
0.108971
0.108958
0.108946
0.105341
0.10534
0.105338
0.105335
0.105332
0.105328
0.105322
0.105313
0.105301
0.105284
0.105261
0.105233
0.105199
0.105157
0.105109
0.105055
0.104993
0.104926
0.104854
0.104776
0.104693
0.104606
0.104515
0.104421
0.104324
0.104225
0.104123
0.10402
0.103916
0.103811
0.103705
0.103598
0.103492
0.103385
0.103279
0.103173
0.103067
0.102963
0.102859
0.102756
0.102654
0.102553
0.102453
0.102354
0.102257
0.102161
0.102066
0.101973
0.101881
0.10179
0.101701
0.101613
0.101527
0.101442
0.101358
0.101276
0.101196
0.101116
0.101039
0.100962
0.100887
0.100813
0.100741
0.10067
0.1006
0.100532
0.100464
0.100398
0.100334
0.10027
0.100208
0.100146
0.100086
0.100027
0.0999695
0.0999127
0.099857
0.0998023
0.0997486
0.099696
0.0996443
0.0995936
0.0995439
0.099495
0.0994471
0.0994001
0.0993539
0.0993086
0.0992641
0.0992204
0.0991776
0.0991355
0.0990942
0.0990537
0.0990139
0.0989748
0.0989364
0.0988987
0.0988617
0.0988254
0.0987897
0.0987547
0.0987203
0.0986865
0.0986533
0.0986207
0.0985887
0.0985573
0.0985264
0.0984961
0.0984662
0.098437
0.0984082
0.0983799
0.0983522
0.0983249
0.0982981
0.0982718
0.0982459
0.0982205
0.0981955
0.098171
0.0981469
0.0981232
0.0980999
0.098077
0.0980545
0.0980324
0.0980107
0.0979894
0.0979685
0.0979479
0.0979277
0.0979078
0.0978883
0.0978691
0.0978503
0.0978318
0.0978137
0.0977958
0.0977783
0.0977611
0.0977443
0.0977277
0.0977115
0.0976956
0.0976799
0.0976645
0.0976494
0.0976354
0.0943648
0.094364
0.094362
0.0943597
0.0943572
0.0943545
0.0943511
0.0943466
0.0943405
0.0943322
0.094321
0.0943066
0.0942884
0.0942662
0.0942395
0.0942084
0.0941728
0.0941326
0.094088
0.0940392
0.0939864
0.0939297
0.0938696
0.0938062
0.0937398
0.0936707
0.0935992
0.0935255
0.09345
0.0933728
0.0932942
0.0932144
0.0931336
0.0930521
0.0929699
0.0928873
0.0928044
0.0927213
0.0926382
0.0925552
0.0924724
0.0923899
0.0923077
0.092226
0.0921449
0.0920643
0.0919843
0.0919051
0.0918266
0.0917488
0.0916719
0.0915958
0.0915206
0.0914462
0.0913728
0.0913003
0.0912287
0.091158
0.0910883
0.0910195
0.0909518
0.0908849
0.090819
0.0907541
0.0906901
0.0906271
0.090565
0.0905039
0.0904437
0.0903844
0.090326
0.0902685
0.0902119
0.0901562
0.0901014
0.0900475
0.0899944
0.0899421
0.0898907
0.0898401
0.0897903
0.0897413
0.0896931
0.0896456
0.0895989
0.089553
0.0895078
0.0894633
0.0894196
0.0893765
0.0893342
0.0892925
0.0892515
0.0892111
0.0891714
0.0891323
0.0890939
0.089056
0.0890188
0.0889822
0.0889461
0.0889106
0.0888757
0.0888414
0.0888075
0.0887742
0.0887415
0.0887092
0.0886775
0.0886463
0.0886155
0.0885853
0.0885555
0.0885262
0.0884973
0.0884689
0.0884409
0.0884134
0.0883863
0.0883596
0.0883334
0.0883075
0.0882821
0.088257
0.0882324
0.0882081
0.0881842
0.0881606
0.0881375
0.0881147
0.0880922
0.0880701
0.0880484
0.088027
0.0880059
0.0879852
0.0879648
0.0879447
0.0879249
0.0879055
0.0878863
0.0878675
0.087849
0.0878308
0.0878129
0.0877953
0.087778
0.0877609
0.0877443
0.0877288
0.0846616
0.0846607
0.0846589
0.0846569
0.0846549
0.0846528
0.0846506
0.0846481
0.0846449
0.0846408
0.0846354
0.0846283
0.0846192
0.0846079
0.0845939
0.0845773
0.0845577
0.0845351
0.0845094
0.0844806
0.0844489
0.0844141
0.0843765
0.0843361
0.0842931
0.0842476
0.0841999
0.0841499
0.084098
0.0840443
0.0839888
0.0839319
0.0838737
0.0838142