/*--------------------------------*- C++ -*----------------------------------*\
| =========                 |                                                 |
| \\      /  F ield         | OpenFOAM: The Open Source CFD Toolbox           |
|  \\    /   O peration     | Version:  5.x                                   |
|   \\  /    A nd           | Web:      www.OpenFOAM.org                      |
|    \\/     M anipulation  |                                                 |
\*---------------------------------------------------------------------------*/
FoamFile
{
    version     2.0;
    format      ascii;
    class       volScalarField;
    location    "0";
    object      k;
}
// * * * * * * * * * * * * * * * * * * * * * * * * * * * * * * * * * * * * * //

dimensions      [0 2 -2 0 0 0 0];

internalField   nonuniform List<scalar> 
21600
(
1.34634
1.32138
1.30713
1.30059
1.29708
1.29486
1.2934
1.2924
1.2917
1.29121
1.29087
1.29064
1.29048
1.29039
1.29034
1.29033
1.29034
1.29038
1.29044
1.29051
1.29059
1.29068
1.29078
1.29088
1.29099
1.2911
1.29121
1.29133
1.29144
1.29156
1.29167
1.29179
1.2919
1.29202
1.29214
1.29225
1.29236
1.29247
1.29259
1.2927
1.29281
1.29291
1.29302
1.29313
1.29323
1.29333
1.29344
1.29354
1.29364
1.29374
1.29383
1.29393
1.29402
1.29412
1.29421
1.2943
1.2944
1.29449
1.29457
1.29466
1.29475
1.29483
1.29492
1.295
1.29509
1.29517
1.29525
1.29533
1.29541
1.29549
1.29557
1.29564
1.29572
1.29579
1.29587
1.29594
1.29601
1.29608
1.29615
1.29622
1.29629
1.29636
1.29643
1.2965
1.29656
1.29663
1.29669
1.29675
1.29682
1.29688
1.29694
1.297
1.29706
1.29712
1.29717
1.29723
1.29729
1.29734
1.2974
1.29745
1.2975
1.29756
1.29761
1.29766
1.29771
1.29776
1.29781
1.29785
1.2979
1.29795
1.29799
1.29804
1.29808
1.29812
1.29817
1.29821
1.29825
1.29829
1.29833
1.29837
1.2984
1.29844
1.29847
1.29851
1.29854
1.29858
1.29861
1.29864
1.29867
1.2987
1.29873
1.29875
1.29878
1.2988
1.29883
1.29885
1.29887
1.29889
1.29891
1.29893
1.29895
1.29896
1.29897
1.29899
1.299
1.29901
1.29901
1.29903
1.29902
1.29907
1.40686
1.40209
1.39755
1.39362
1.39077
1.38875
1.3873
1.38625
1.3855
1.38493
1.38452
1.38422
1.38401
1.38387
1.38378
1.38373
1.38371
1.38372
1.38375
1.38381
1.38387
1.38395
1.38404
1.38413
1.38423
1.38434
1.38445
1.38456
1.38468
1.38479
1.38491
1.38503
1.38515
1.38527
1.38539
1.38551
1.38563
1.38574
1.38586
1.38598
1.38609
1.38621
1.38632
1.38643
1.38654
1.38665
1.38676
1.38687
1.38697
1.38708
1.38718
1.38729
1.38739
1.38749
1.38759
1.38769
1.38778
1.38788
1.38798
1.38807
1.38816
1.38826
1.38835
1.38844
1.38853
1.38861
1.3887
1.38879
1.38887
1.38896
1.38904
1.38912
1.3892
1.38928
1.38936
1.38944
1.38952
1.3896
1.38967
1.38975
1.38982
1.3899
1.38997
1.39004
1.39011
1.39018
1.39025
1.39032
1.39039
1.39045
1.39052
1.39058
1.39065
1.39071
1.39077
1.39084
1.3909
1.39096
1.39102
1.39107
1.39113
1.39119
1.39125
1.3913
1.39136
1.39141
1.39146
1.39152
1.39157
1.39162
1.39167
1.39172
1.39177
1.39181
1.39186
1.39191
1.39195
1.392
1.39204
1.39209
1.39213
1.39217
1.39221
1.39225
1.39229
1.39233
1.39236
1.3924
1.39243
1.39247
1.3925
1.39253
1.39257
1.3926
1.39263
1.39266
1.39268
1.39271
1.39273
1.39276
1.39278
1.3928
1.39282
1.39284
1.39286
1.39288
1.39289
1.39291
1.39292
1.39293
1.374
1.36462
1.35761
1.35271
1.34925
1.34676
1.34492
1.34352
1.34245
1.34161
1.34094
1.34041
1.33999
1.33966
1.33939
1.33918
1.33901
1.33888
1.33879
1.33872
1.33868
1.33866
1.33865
1.33866
1.33868
1.33871
1.33875
1.33879
1.33885
1.3389
1.33897
1.33903
1.3391
1.33917
1.33925
1.33932
1.3394
1.33948
1.33956
1.33964
1.33972
1.33981
1.33989
1.33997
1.34006
1.34014
1.34022
1.3403
1.34039
1.34047
1.34055
1.34063
1.34071
1.34079
1.34088
1.34095
1.34103
1.34111
1.34119
1.34127
1.34135
1.34142
1.3415
1.34157
1.34165
1.34172
1.3418
1.34187
1.34194
1.34202
1.34209
1.34216
1.34223
1.3423
1.34236
1.34243
1.3425
1.34257
1.34263
1.3427
1.34276
1.34283
1.34289
1.34295
1.34302
1.34308
1.34314
1.3432
1.34326
1.34332
1.34337
1.34343
1.34349
1.34355
1.3436
1.34366
1.34371
1.34376
1.34382
1.34387
1.34392
1.34397
1.34402
1.34407
1.34412
1.34417
1.34422
1.34427
1.34432
1.34436
1.34441
1.34445
1.3445
1.34454
1.34458
1.34463
1.34467
1.34471
1.34475
1.34479
1.34483
1.34487
1.3449
1.34494
1.34498
1.34501
1.34505
1.34508
1.34512
1.34515
1.34518
1.34521
1.34524
1.34527
1.3453
1.34533
1.34536
1.34538
1.34541
1.34543
1.34546
1.34548
1.3455
1.34552
1.34554
1.34556
1.34558
1.3456
1.34561
1.34562
1.366
1.35456
1.34536
1.33901
1.33449
1.33118
1.32869
1.32676
1.32523
1.324
1.32299
1.32216
1.32146
1.32088
1.32038
1.31997
1.31962
1.31932
1.31907
1.31886
1.31868
1.31853
1.31841
1.3183
1.31822
1.31815
1.3181
1.31806
1.31804
1.31802
1.31801
1.31801
1.31802
1.31803
1.31805
1.31807
1.3181
1.31813
1.31816
1.3182
1.31824
1.31828
1.31833
1.31837
1.31842
1.31847
1.31852
1.31857
1.31862
1.31868
1.31873
1.31879
1.31884
1.3189
1.31896
1.31901
1.31907
1.31913
1.31918
1.31924
1.3193
1.31936
1.31942
1.31947
1.31953
1.31959
1.31965
1.3197
1.31976
1.31982
1.31987
1.31993
1.31999
1.32004
1.3201
1.32015
1.32021
1.32026
1.32032
1.32037
1.32042
1.32048
1.32053
1.32058
1.32063
1.32068
1.32074
1.32079
1.32084
1.32089
1.32094
1.32098
1.32103
1.32108
1.32113
1.32118
1.32122
1.32127
1.32131
1.32136
1.32141
1.32145
1.32149
1.32154
1.32158
1.32162
1.32166
1.32171
1.32175
1.32179
1.32183
1.32187
1.32191
1.32195
1.32198
1.32202
1.32206
1.32209
1.32213
1.32217
1.3222
1.32224
1.32227
1.3223
1.32234
1.32237
1.3224
1.32243
1.32246
1.32249
1.32252
1.32255
1.32258
1.32261
1.32263
1.32266
1.32269
1.32271
1.32273
1.32276
1.32278
1.3228
1.32282
1.32285
1.32287
1.32289
1.3229
1.32292
1.32294
1.32295
1.36551
1.35453
1.34469
1.3372
1.33161
1.3274
1.32414
1.32158
1.3195
1.3178
1.31638
1.31518
1.31416
1.31329
1.31253
1.31187
1.3113
1.3108
1.31036
1.30997
1.30963
1.30933
1.30907
1.30883
1.30863
1.30844
1.30828
1.30814
1.30802
1.30791
1.30781
1.30773
1.30766
1.3076
1.30755
1.3075
1.30746
1.30744
1.30741
1.30739
1.30738
1.30737
1.30737
1.30737
1.30737
1.30738
1.30739
1.3074
1.30742
1.30743
1.30745
1.30747
1.3075
1.30752
1.30755
1.30758
1.30761
1.30764
1.30767
1.3077
1.30773
1.30777
1.3078
1.30784
1.30787
1.30791
1.30795
1.30798
1.30802
1.30806
1.3081
1.30813
1.30817
1.30821
1.30825
1.30829
1.30833
1.30837
1.30841
1.30845
1.30849
1.30853
1.30856
1.3086
1.30864
1.30868
1.30872
1.30876
1.3088
1.30884
1.30887
1.30891
1.30895
1.30899
1.30902
1.30906
1.3091
1.30913
1.30917
1.30921
1.30924
1.30928
1.30931
1.30935
1.30938
1.30942
1.30945
1.30949
1.30952
1.30955
1.30959
1.30962
1.30965
1.30968
1.30971
1.30974
1.30978
1.30981
1.30984
1.30987
1.3099
1.30992
1.30995
1.30998
1.31001
1.31004
1.31006
1.31009
1.31012
1.31014
1.31017
1.31019
1.31022
1.31024
1.31026
1.31029
1.31031
1.31033
1.31035
1.31037
1.31039
1.31041
1.31043
1.31045
1.31047
1.31049
1.31051
1.31053
1.31054
1.31055
1.3667
1.35774
1.34854
1.34073
1.33447
1.32953
1.32559
1.3224
1.31978
1.31759
1.31574
1.31416
1.31279
1.3116
1.31055
1.30963
1.30881
1.30809
1.30744
1.30685
1.30633
1.30586
1.30544
1.30505
1.30471
1.30439
1.3041
1.30384
1.30361
1.30339
1.3032
1.30302
1.30286
1.30271
1.30257
1.30245
1.30234
1.30224
1.30214
1.30206
1.30198
1.30192
1.30185
1.3018
1.30175
1.3017
1.30166
1.30163
1.3016
1.30157
1.30155
1.30153
1.30151
1.3015
1.30149
1.30148
1.30148
1.30147
1.30147
1.30147
1.30148
1.30148
1.30149
1.3015
1.30151
1.30152
1.30153
1.30154
1.30155
1.30157
1.30158
1.3016
1.30162
1.30164
1.30165
1.30167
1.30169
1.30171
1.30173
1.30176
1.30178
1.3018
1.30182
1.30184
1.30187
1.30189
1.30191
1.30194
1.30196
1.30198
1.30201
1.30203
1.30206
1.30208
1.30211
1.30213
1.30215
1.30218
1.3022
1.30223
1.30225
1.30228
1.3023
1.30233
1.30235
1.30237
1.3024
1.30242
1.30245
1.30247
1.30249
1.30252
1.30254
1.30256
1.30259
1.30261
1.30263
1.30265
1.30268
1.3027
1.30272
1.30274
1.30276
1.30279
1.30281
1.30283
1.30285
1.30287
1.30289
1.30291
1.30293
1.30295
1.30297
1.30298
1.303
1.30302
1.30304
1.30306
1.30307
1.30309
1.30311
1.30312
1.30314
1.30315
1.30317
1.30318
1.3032
1.30321
1.30322
1.30324
1.36782
1.36135
1.35362
1.34627
1.3399
1.33459
1.33018
1.32651
1.32343
1.3208
1.31855
1.3166
1.31489
1.31339
1.31205
1.31086
1.3098
1.30884
1.30797
1.30719
1.30647
1.30582
1.30523
1.30468
1.30418
1.30372
1.3033
1.30291
1.30255
1.30222
1.30191
1.30162
1.30136
1.30112
1.30089
1.30068
1.30048
1.3003
1.30013
1.29997
1.29982
1.29968
1.29955
1.29944
1.29932
1.29922
1.29912
1.29903
1.29895
1.29887
1.2988
1.29873
1.29867
1.29861
1.29856
1.29851
1.29847
1.29842
1.29838
1.29835
1.29832
1.29829
1.29826
1.29823
1.29821
1.29819
1.29817
1.29815
1.29814
1.29813
1.29811
1.2981
1.2981
1.29809
1.29808
1.29808
1.29808
1.29807
1.29807
1.29807
1.29807
1.29807
1.29807
1.29808
1.29808
1.29809
1.29809
1.2981
1.2981
1.29811
1.29812
1.29812
1.29813
1.29814
1.29815
1.29816
1.29817
1.29818
1.29819
1.2982
1.29821
1.29822
1.29823
1.29824
1.29825
1.29826
1.29828
1.29829
1.2983
1.29831
1.29832
1.29834
1.29835
1.29836
1.29837
1.29839
1.2984
1.29841
1.29842
1.29844
1.29845
1.29846
1.29847
1.29849
1.2985
1.29851
1.29852
1.29854
1.29855
1.29856
1.29857
1.29858
1.2986
1.29861
1.29862
1.29863
1.29864
1.29865
1.29866
1.29867
1.29868
1.29869
1.2987
1.29871
1.29872
1.29873
1.29874
1.29875
1.29876
1.29877
1.36853
1.36429
1.35836
1.35204
1.34609
1.34083
1.33626
1.33232
1.32892
1.32598
1.3234
1.32114
1.31914
1.31735
1.31575
1.31431
1.31301
1.31183
1.31075
1.30976
1.30886
1.30802
1.30726
1.30655
1.3059
1.30529
1.30472
1.3042
1.30371
1.30325
1.30283
1.30243
1.30206
1.30171
1.30138
1.30107
1.30079
1.30051
1.30026
1.30002
1.29979
1.29958
1.29938
1.29919
1.29901
1.29884
1.29868
1.29853
1.29839
1.29825
1.29812
1.298
1.29789
1.29778
1.29768
1.29758
1.29749
1.2974
1.29732
1.29724
1.29717
1.2971
1.29703
1.29697
1.29691
1.29685
1.2968
1.29675
1.2967
1.29666
1.29661
1.29657
1.29654
1.2965
1.29647
1.29643
1.2964
1.29637
1.29635
1.29632
1.2963
1.29627
1.29625
1.29623
1.29621
1.29619
1.29618
1.29616
1.29615
1.29613
1.29612
1.29611
1.2961
1.29609
1.29608
1.29607
1.29606
1.29605
1.29605
1.29604
1.29603
1.29603
1.29602
1.29602
1.29602
1.29601
1.29601
1.29601
1.296
1.296
1.296
1.296
1.296
1.296
1.296
1.296
1.296
1.296
1.296
1.296
1.296
1.296
1.296
1.29601
1.29601
1.29601
1.29601
1.29601
1.29602
1.29602
1.29602
1.29602
1.29603
1.29603
1.29603
1.29603
1.29604
1.29604
1.29604
1.29605
1.29605
1.29605
1.29605
1.29606
1.29606
1.29606
1.29607
1.29607
1.29607
1.29607
1.36887
1.36632
1.36213
1.35713
1.352
1.34715
1.34274
1.33878
1.33527
1.33215
1.32937
1.32689
1.32467
1.32266
1.32084
1.31918
1.31768
1.31629
1.31502
1.31385
1.31277
1.31177
1.31084
1.30997
1.30917
1.30842
1.30771
1.30706
1.30644
1.30586
1.30531
1.3048
1.30432
1.30386
1.30343
1.30303
1.30264
1.30228
1.30193
1.30161
1.3013
1.30101
1.30073
1.30046
1.30021
1.29997
1.29974
1.29952
1.29932
1.29912
1.29893
1.29875
1.29858
1.29842
1.29826
1.29811
1.29797
1.29783
1.2977
1.29758
1.29746
1.29735
1.29724
1.29713
1.29703
1.29694
1.29684
1.29676
1.29667
1.29659
1.29651
1.29644
1.29637
1.2963
1.29623
1.29617
1.29611
1.29605
1.29599
1.29594
1.29588
1.29583
1.29578
1.29574
1.29569
1.29565
1.29561
1.29557
1.29553
1.29549
1.29546
1.29542
1.29539
1.29536
1.29533
1.2953
1.29527
1.29524
1.29521
1.29519
1.29516
1.29514
1.29512
1.29509
1.29507
1.29505
1.29503
1.29501
1.29499
1.29497
1.29496
1.29494
1.29492
1.29491
1.29489
1.29488
1.29486
1.29485
1.29484
1.29482
1.29481
1.2948
1.29479
1.29478
1.29477
1.29476
1.29475
1.29474
1.29473
1.29472
1.29471
1.2947
1.29469
1.29468
1.29468
1.29467
1.29466
1.29465
1.29465
1.29464
1.29463
1.29463
1.29462
1.29461
1.29461
1.2946
1.2946
1.29459
1.29458
1.29458
1.36899
1.36758
1.36483
1.36116
1.35706
1.3529
1.34891
1.34518
1.34176
1.33863
1.33579
1.33321
1.33085
1.3287
1.32673
1.32492
1.32325
1.32171
1.32028
1.31896
1.31773
1.31658
1.3155
1.3145
1.31355
1.31267
1.31184
1.31105
1.31031
1.30961
1.30896
1.30833
1.30774
1.30718
1.30665
1.30615
1.30567
1.30521
1.30478
1.30436
1.30397
1.30359
1.30323
1.30289
1.30257
1.30225
1.30195
1.30167
1.30139
1.30113
1.30088
1.30064
1.30041
1.30019
1.29997
1.29977
1.29957
1.29938
1.2992
1.29903
1.29886
1.2987
1.29854
1.29839
1.29825
1.29811
1.29797
1.29784
1.29772
1.2976
1.29748
1.29737
1.29726
1.29716
1.29705
1.29696
1.29686
1.29677
1.29668
1.29659
1.29651
1.29643
1.29635
1.29627
1.2962
1.29613
1.29606
1.29599
1.29593
1.29586
1.2958
1.29574
1.29569
1.29563
1.29557
1.29552
1.29547
1.29542
1.29537
1.29532
1.29528
1.29523
1.29519
1.29514
1.2951
1.29506
1.29502
1.29498
1.29495
1.29491
1.29487
1.29484
1.29481
1.29477
1.29474
1.29471
1.29468
1.29465
1.29462
1.29459
1.29456
1.29454
1.29451
1.29448
1.29446
1.29443
1.29441
1.29438
1.29436
1.29434
1.29432
1.29429
1.29427
1.29425
1.29423
1.29421
1.29419
1.29417
1.29416
1.29414
1.29412
1.2941
1.29408
1.29407
1.29405
1.29404
1.29402
1.294
1.29399
1.29397
1.36899
1.36827
1.3666
1.3641
1.36105
1.35772
1.35433
1.35103
1.34788
1.34492
1.34216
1.3396
1.33722
1.33502
1.33298
1.33108
1.32932
1.32767
1.32613
1.32469
1.32334
1.32208
1.32089
1.31976
1.31871
1.31771
1.31676
1.31587
1.31502
1.31422
1.31345
1.31273
1.31204
1.31138
1.31075
1.31016
1.30959
1.30904
1.30852
1.30802
1.30755
1.30709
1.30666
1.30624
1.30584
1.30545
1.30508
1.30472
1.30438
1.30405
1.30374
1.30344
1.30314
1.30286
1.30259
1.30233
1.30208
1.30183
1.3016
1.30137
1.30115
1.30094
1.30073
1.30054
1.30035
1.30016
1.29998
1.29981
1.29964
1.29948
1.29932
1.29917
1.29902
1.29888
1.29874
1.2986
1.29847
1.29834
1.29822
1.2981
1.29798
1.29787
1.29776
1.29765
1.29754
1.29744
1.29734
1.29724
1.29715
1.29706
1.29697
1.29688
1.2968
1.29671
1.29663
1.29655
1.29648
1.2964
1.29633
1.29625
1.29618
1.29612
1.29605
1.29598
1.29592
1.29586
1.2958
1.29574
1.29568
1.29562
1.29556
1.29551
1.29546
1.2954
1.29535
1.2953
1.29525
1.2952
1.29516
1.29511
1.29506
1.29502
1.29498
1.29493
1.29489
1.29485
1.29481
1.29477
1.29473
1.29469
1.29466
1.29462
1.29458
1.29455
1.29451
1.29448
1.29445
1.29441
1.29438
1.29435
1.29432
1.29429
1.29426
1.29423
1.2942
1.29417
1.29415
1.29412
1.29409
1.29406
1.36894
1.3686
1.36767
1.36609
1.36396
1.36148
1.35879
1.35603
1.35329
1.35064
1.3481
1.34568
1.3434
1.34125
1.33922
1.33731
1.33552
1.33383
1.33224
1.33073
1.32931
1.32797
1.3267
1.32549
1.32435
1.32326
1.32223
1.32125
1.32031
1.31942
1.31857
1.31776
1.31698
1.31624
1.31553
1.31485
1.31419
1.31357
1.31297
1.31239
1.31184
1.31131
1.3108
1.31031
1.30983
1.30938
1.30894
1.30852
1.30811
1.30772
1.30734
1.30697
1.30662
1.30628
1.30595
1.30563
1.30532
1.30503
1.30474
1.30446
1.30419
1.30392
1.30367
1.30342
1.30318
1.30295
1.30273
1.30251
1.3023
1.30209
1.30189
1.3017
1.30151
1.30132
1.30114
1.30097
1.3008
1.30063
1.30047
1.30032
1.30016
1.30001
1.29987
1.29973
1.29959
1.29945
1.29932
1.29919
1.29907
1.29895
1.29883
1.29871
1.2986
1.29848
1.29837
1.29827
1.29816
1.29806
1.29796
1.29786
1.29777
1.29767
1.29758
1.29749
1.2974
1.29732
1.29723
1.29715
1.29707
1.29699
1.29691
1.29683
1.29676
1.29668
1.29661
1.29654
1.29647
1.2964
1.29633
1.29627
1.2962
1.29614
1.29608
1.29602
1.29596
1.2959
1.29584
1.29578
1.29573
1.29567
1.29562
1.29556
1.29551
1.29546
1.29541
1.29536
1.29531
1.29526
1.29522
1.29517
1.29512
1.29508
1.29503
1.29499
1.29495
1.29491
1.29486
1.29482
1.29478
1.29474
1.36888
1.36874
1.36825
1.36733
1.36596
1.36422
1.36222
1.36006
1.35782
1.35557
1.35334
1.35118
1.34908
1.34707
1.34515
1.34331
1.34156
1.3399
1.33831
1.3368
1.33536
1.33398
1.33267
1.33142
1.33023
1.32909
1.328
1.32696
1.32596
1.325
1.32408
1.3232
1.32236
1.32155
1.32077
1.32002
1.3193
1.31861
1.31794
1.31729
1.31668
1.31608
1.3155
1.31495
1.31441
1.31389
1.31339
1.3129
1.31244
1.31198
1.31155
1.31112
1.31071
1.31031
1.30993
1.30955
1.30919
1.30884
1.3085
1.30817
1.30785
1.30754
1.30723
1.30694
1.30665
1.30637
1.3061
1.30584
1.30558
1.30533
1.30509
1.30485
1.30462
1.3044
1.30418
1.30396
1.30375
1.30355
1.30335
1.30316
1.30297
1.30278
1.3026
1.30243
1.30225
1.30208
1.30192
1.30176
1.3016
1.30145
1.30129
1.30115
1.301
1.30086
1.30072
1.30058
1.30045
1.30032
1.30019
1.30007
1.29994
1.29982
1.2997
1.29959
1.29947
1.29936
1.29925
1.29914
1.29904
1.29893
1.29883
1.29873
1.29863
1.29854
1.29844
1.29835
1.29826
1.29817
1.29808
1.29799
1.29791
1.29782
1.29774
1.29766
1.29758
1.2975
1.29742
1.29734
1.29727
1.2972
1.29712
1.29705
1.29698
1.29691
1.29684
1.29678
1.29671
1.29665
1.29658
1.29652
1.29646
1.2964
1.29634
1.29628
1.29622
1.29616
1.2961
1.29605
1.29599
1.29594
1.36882
1.36877
1.36855
1.36805
1.36723
1.3661
1.36471
1.36312
1.3614
1.35959
1.35775
1.35591
1.35408
1.35229
1.35054
1.34885
1.34721
1.34563
1.34411
1.34265
1.34124
1.33988
1.33858
1.33733
1.33613
1.33497
1.33385
1.33278
1.33175
1.33076
1.3298
1.32888
1.32799
1.32713
1.3263
1.3255
1.32473
1.32399
1.32326
1.32257
1.32189
1.32124
1.32061
1.32
1.31941
1.31884
1.31828
1.31775
1.31723
1.31672
1.31623
1.31575
1.31529
1.31484
1.3144
1.31398
1.31357
1.31317
1.31278
1.3124
1.31203
1.31167
1.31132
1.31098
1.31065
1.31033
1.31001
1.3097
1.30941
1.30911
1.30883
1.30855
1.30828
1.30801
1.30775
1.3075
1.30725
1.30701
1.30678
1.30654
1.30632
1.3061
1.30588
1.30567
1.30546
1.30526
1.30506
1.30486
1.30467
1.30449
1.3043
1.30412
1.30395
1.30377
1.3036
1.30344
1.30328
1.30312
1.30296
1.3028
1.30265
1.3025
1.30236
1.30221
1.30207
1.30194
1.3018
1.30167
1.30153
1.30141
1.30128
1.30115
1.30103
1.30091
1.30079
1.30067
1.30056
1.30045
1.30034
1.30023
1.30012
1.30001
1.29991
1.2998
1.2997
1.2996
1.29951
1.29941
1.29931
1.29922
1.29913
1.29904
1.29895
1.29886
1.29877
1.29869
1.2986
1.29852
1.29844
1.29836
1.29828
1.2982
1.29812
1.29804
1.29797
1.2979
1.29782
1.29775
1.29768
1.29761
1.36876
1.36876
1.36867
1.36843
1.36798
1.3673
1.36641
1.36532
1.36407
1.36271
1.36127
1.35978
1.35827
1.35675
1.35524
1.35374
1.35228
1.35084
1.34944
1.34808
1.34675
1.34546
1.34422
1.34301
1.34183
1.3407
1.3396
1.33853
1.3375
1.3365
1.33553
1.33459
1.33369
1.33281
1.33195
1.33112
1.33032
1.32954
1.32879
1.32806
1.32735
1.32666
1.32599
1.32534
1.3247
1.32409
1.32349
1.32291
1.32235
1.3218
1.32127
1.32075
1.32024
1.31975
1.31927
1.3188
1.31834
1.3179
1.31747
1.31705
1.31664
1.31623
1.31584
1.31546
1.31509
1.31472
1.31437
1.31402
1.31368
1.31335
1.31303
1.31271
1.3124
1.31209
1.3118
1.31151
1.31122
1.31094
1.31067
1.3104
1.31014
1.30989
1.30964
1.30939
1.30915
1.30891
1.30868
1.30845
1.30823
1.30801
1.30779
1.30758
1.30738
1.30717
1.30697
1.30678
1.30658
1.30639
1.30621
1.30602
1.30584
1.30567
1.30549
1.30532
1.30515
1.30499
1.30483
1.30467
1.30451
1.30435
1.3042
1.30405
1.3039
1.30376
1.30362
1.30347
1.30334
1.3032
1.30306
1.30293
1.3028
1.30267
1.30254
1.30242
1.3023
1.30217
1.30205
1.30194
1.30182
1.30171
1.30159
1.30148
1.30137
1.30126
1.30116
1.30105
1.30095
1.30084
1.30074
1.30064
1.30055
1.30045
1.30035
1.30026
1.30017
1.30007
1.29998
1.29989
1.2998
1.29972
1.36873
1.36874
1.36871
1.36861
1.36839
1.36802
1.36748
1.36679
1.36595
1.36499
1.36393
1.3628
1.36162
1.36039
1.35915
1.35789
1.35664
1.35539
1.35415
1.35294
1.35174
1.35056
1.34941
1.34828
1.34718
1.3461
1.34505
1.34403
1.34303
1.34205
1.34111
1.34018
1.33928
1.33841
1.33755
1.33672
1.33591
1.33512
1.33436
1.33361
1.33288
1.33217
1.33148
1.3308
1.33015
1.3295
1.32888
1.32827
1.32768
1.3271
1.32653
1.32598
1.32544
1.32491
1.3244
1.3239
1.32341
1.32293
1.32246
1.32201
1.32156
1.32112
1.3207
1.32028
1.31987
1.31947
1.31908
1.3187
1.31832
1.31796
1.3176
1.31724
1.3169
1.31656
1.31623
1.31591
1.31559
1.31528
1.31497
1.31467
1.31437
1.31409
1.3138
1.31352
1.31325
1.31298
1.31272
1.31246
1.3122
1.31195
1.31171
1.31147
1.31123
1.311
1.31077
1.31054
1.31032
1.3101
1.30989
1.30968
1.30947
1.30926
1.30906
1.30886
1.30867
1.30848
1.30829
1.3081
1.30792
1.30774
1.30756
1.30738
1.30721
1.30704
1.30687
1.30671
1.30655
1.30638
1.30623
1.30607
1.30592
1.30576
1.30561
1.30547
1.30532
1.30518
1.30504
1.3049
1.30476
1.30462
1.30449
1.30436
1.30422
1.3041
1.30397
1.30384
1.30372
1.3036
1.30348
1.30336
1.30324
1.30312
1.30301
1.30289
1.30278
1.30267
1.30256
1.30246
1.30235
1.30225
1.3687
1.36871
1.36871
1.36868
1.36859
1.36841
1.36812
1.36772
1.3672
1.36657
1.36584
1.36503
1.36416
1.36323
1.36226
1.36126
1.36023
1.3592
1.35816
1.35712
1.35608
1.35505
1.35402
1.35301
1.35201
1.35103
1.35006
1.34911
1.34818
1.34726
1.34637
1.34549
1.34462
1.34378
1.34295
1.34214
1.34135
1.34057
1.33981
1.33907
1.33834
1.33763
1.33694
1.33626
1.33559
1.33494
1.33431
1.33368
1.33308
1.33248
1.3319
1.33132
1.33077
1.33022
1.32968
1.32916
1.32865
1.32814
1.32765
1.32717
1.32669
1.32623
1.32578
1.32533
1.3249
1.32447
1.32405
1.32364
1.32323
1.32284
1.32245
1.32207
1.3217
1.32133
1.32097
1.32061
1.32027
1.31993
1.31959
1.31926
1.31894
1.31862
1.31831
1.318
1.3177
1.3174
1.31711
1.31682
1.31654
1.31626
1.31599
1.31572
1.31545
1.31519
1.31493
1.31468
1.31443
1.31419
1.31395
1.31371
1.31347
1.31324
1.31302
1.31279
1.31257
1.31235
1.31214
1.31193
1.31172
1.31151
1.31131
1.31111
1.31091
1.31072
1.31053
1.31034
1.31015
1.30997
1.30979
1.30961
1.30943
1.30925
1.30908
1.30891
1.30874
1.30858
1.30842
1.30825
1.30809
1.30794
1.30778
1.30763
1.30748
1.30733
1.30718
1.30703
1.30689
1.30675
1.30661
1.30647
1.30633
1.30619
1.30606
1.30593
1.3058
1.30567
1.30554
1.30541
1.30529
1.30517
1.36867
1.36868
1.36869
1.36869
1.36867
1.3686
1.36847
1.36826
1.36797
1.36759
1.36713
1.36659
1.36599
1.36532
1.36461
1.36386
1.36307
1.36225
1.36142
1.36057
1.35971
1.35884
1.35798
1.35711
1.35624
1.35538
1.35452
1.35367
1.35283
1.352
1.35118
1.35037
1.34957
1.34878
1.348
1.34724
1.34649
1.34575
1.34502
1.3443
1.3436
1.34291
1.34223
1.34157
1.34091
1.34027
1.33964
1.33902
1.33841
1.33782
1.33723
1.33666
1.33609
1.33554
1.33499
1.33446
1.33394
1.33342
1.33291
1.33242
1.33193
1.33145
1.33098
1.33052
1.33006
1.32961
1.32918
1.32874
1.32832
1.3279
1.32749
1.32709
1.3267
1.32631
1.32592
1.32555
1.32517
1.32481
1.32445
1.3241
1.32375
1.32341
1.32307
1.32274
1.32241
1.32209
1.32178
1.32146
1.32116
1.32085
1.32056
1.32026
1.31997
1.31969
1.31941
1.31913
1.31886
1.31859
1.31832
1.31806
1.3178
1.31755
1.3173
1.31705
1.3168
1.31656
1.31632
1.31609
1.31586
1.31563
1.3154
1.31518
1.31496
1.31474
1.31453
1.31432
1.31411
1.3139
1.3137
1.3135
1.3133
1.3131
1.31291
1.31272
1.31253
1.31234
1.31216
1.31197
1.31179
1.31161
1.31144
1.31126
1.31109
1.31092
1.31075
1.31059
1.31042
1.31026
1.3101
1.30994
1.30979
1.30963
1.30948
1.30933
1.30918
1.30903
1.30888
1.30874
1.30859
1.30846
1.36865
1.36866
1.36867
1.36868
1.36869
1.36868
1.36864
1.36855
1.36841
1.3682
1.36794
1.36761
1.36723
1.36679
1.3663
1.36576
1.36519
1.36459
1.36396
1.3633
1.36262
1.36193
1.36123
1.36051
1.35979
1.35907
1.35834
1.35761
1.35688
1.35616
1.35543
1.35471
1.354
1.35329
1.35259
1.35189
1.3512
1.35052
1.34984
1.34918
1.34852
1.34787
1.34723
1.3466
1.34597
1.34536
1.34475
1.34415
1.34356
1.34298
1.34241
1.34185
1.34129
1.34075
1.34021
1.33968
1.33916
1.33864
1.33813
1.33764
1.33714
1.33666
1.33618
1.33572
1.33525
1.3348
1.33435
1.33391
1.33347
1.33304
1.33262
1.33221
1.3318
1.33139
1.33099
1.3306
1.33022
1.32983
1.32946
1.32909
1.32872
1.32836
1.32801
1.32766
1.32731
1.32697
1.32664
1.32631
1.32598
1.32566
1.32534
1.32503
1.32472
1.32441
1.32411
1.32382
1.32352
1.32323
1.32295
1.32266
1.32239
1.32211
1.32184
1.32157
1.32131
1.32104
1.32079
1.32053
1.32028
1.32003
1.31978
1.31954
1.3193
1.31906
1.31883
1.3186
1.31837
1.31814
1.31792
1.31769
1.31748
1.31726
1.31705
1.31683
1.31663
1.31642
1.31621
1.31601
1.31581
1.31561
1.31542
1.31523
1.31503
1.31485
1.31466
1.31447
1.31429
1.31411
1.31393
1.31375
1.31358
1.31341
1.31323
1.31307
1.3129
1.31273
1.31257
1.3124
1.31224
1.31209
1.36863
1.36864
1.36865
1.36866
1.36868
1.3687
1.3687
1.36868
1.36863
1.36854
1.36841
1.36824
1.36801
1.36775
1.36744
1.36709
1.3667
1.36628
1.36583
1.36536
1.36485
1.36433
1.36379
1.36323
1.36266
1.36208
1.36149
1.3609
1.36029
1.35968
1.35907
1.35846
1.35785
1.35723
1.35662
1.35601
1.3554
1.35479
1.35419
1.35359
1.35299
1.3524
1.35181
1.35123
1.35065
1.35008
1.34952
1.34896
1.3484
1.34786
1.34731
1.34678
1.34625
1.34572
1.3452
1.34469
1.34419
1.34369
1.34319
1.34271
1.34222
1.34175
1.34128
1.34082
1.34036
1.3399
1.33946
1.33902
1.33858
1.33815
1.33773
1.33731
1.33689
1.33648
1.33608
1.33568
1.33529
1.3349
1.33452
1.33414
1.33376
1.33339
1.33303
1.33267
1.33231
1.33196
1.33161
1.33127
1.33093
1.33059
1.33026
1.32993
1.32961
1.32929
1.32897
1.32866
1.32835
1.32805
1.32775
1.32745
1.32715
1.32686
1.32657
1.32629
1.32601
1.32573
1.32545
1.32518
1.32491
1.32465
1.32438
1.32412
1.32387
1.32361
1.32336
1.32311
1.32286
1.32262
1.32238
1.32214
1.3219
1.32167
1.32144
1.32121
1.32098
1.32076
1.32054
1.32032
1.3201
1.31989
1.31967
1.31946
1.31926
1.31905
1.31885
1.31864
1.31844
1.31824
1.31805
1.31785
1.31766
1.31747
1.31728
1.3171
1.31691
1.31673
1.31655
1.31637
1.31619
1.31603
1.36862
1.36863
1.36863
1.36864
1.36867
1.36869
1.36872
1.36873
1.36873
1.36871
1.36866
1.36859
1.36848
1.36834
1.36816
1.36795
1.36772
1.36745
1.36715
1.36683
1.36648
1.36611
1.36572
1.36531
1.36488
1.36444
1.36399
1.36352
1.36305
1.36256
1.36207
1.36157
1.36106
1.36056
1.36004
1.35953
1.35901
1.35849
1.35797
1.35745
1.35693
1.35641
1.35589
1.35538
1.35486
1.35435
1.35384
1.35333
1.35283
1.35233
1.35183
1.35133
1.35084
1.35036
1.34987
1.34939
1.34892
1.34844
1.34798
1.34751
1.34705
1.3466
1.34615
1.3457
1.34526
1.34482
1.34439
1.34396
1.34353
1.34311
1.3427
1.34229
1.34188
1.34147
1.34107
1.34068
1.34029
1.3399
1.33952
1.33914
1.33876
1.33839
1.33802
1.33766
1.3373
1.33694
1.33659
1.33624
1.33589
1.33555
1.33521
1.33488
1.33455
1.33422
1.3339
1.33358
1.33326
1.33294
1.33263
1.33232
1.33202
1.33172
1.33142
1.33112
1.33083
1.33054
1.33025
1.32997
1.32969
1.32941
1.32913
1.32886
1.32859
1.32832
1.32806
1.32779
1.32753
1.32728
1.32702
1.32677
1.32652
1.32627
1.32603
1.32578
1.32554
1.3253
1.32507
1.32483
1.3246
1.32437
1.32415
1.32392
1.3237
1.32348
1.32326
1.32304
1.32283
1.32261
1.3224
1.32219
1.32199
1.32178
1.32158
1.32138
1.32118
1.32098
1.32079
1.32059
1.3204
1.32022
1.36861
1.36861
1.36862
1.36863
1.36865
1.36867
1.36871
1.36874
1.36876
1.36877
1.36877
1.36876
1.36872
1.36866
1.36858
1.36848
1.36835
1.36819
1.36802
1.36782
1.3676
1.36735
1.36709
1.36681
1.36651
1.3662
1.36587
1.36553
1.36517
1.36481
1.36443
1.36405
1.36365
1.36325
1.36284
1.36243
1.36201
1.36158
1.36115
1.36072
1.36029
1.35985
1.35941
1.35897
1.35853
1.35808
1.35764
1.3572
1.35675
1.35631
1.35587
1.35543
1.35499
1.35455
1.35411
1.35368
1.35324
1.35281
1.35238
1.35195
1.35153
1.35111
1.35069
1.35027
1.34985
1.34944
1.34903
1.34863
1.34822
1.34782
1.34743
1.34703
1.34664
1.34625
1.34586
1.34548
1.3451
1.34473
1.34435
1.34398
1.34362
1.34325
1.34289
1.34253
1.34218
1.34182
1.34147
1.34113
1.34079
1.34045
1.34011
1.33977
1.33944
1.33911
1.33879
1.33846
1.33814
1.33783
1.33751
1.3372
1.33689
1.33659
1.33628
1.33598
1.33568
1.33539
1.33509
1.3348
1.33451
1.33423
1.33395
1.33366
1.33339
1.33311
1.33284
1.33257
1.3323
1.33203
1.33177
1.3315
1.33125
1.33099
1.33073
1.33048
1.33023
1.32998
1.32973
1.32949
1.32925
1.32901
1.32877
1.32853
1.3283
1.32807
1.32783
1.32761
1.32738
1.32716
1.32693
1.32671
1.32649
1.32628
1.32606
1.32585
1.32564
1.32543
1.32522
1.32501
1.32481
1.32462
1.36861
1.3686
1.3686
1.36861
1.36863
1.36865
1.36868
1.36872
1.36875
1.36878
1.36881
1.36882
1.36883
1.36882
1.3688
1.36876
1.36871
1.36864
1.36855
1.36844
1.36832
1.36817
1.36801
1.36784
1.36765
1.36744
1.36722
1.36699
1.36674
1.36648
1.36621
1.36593
1.36564
1.36534
1.36504
1.36472
1.3644
1.36407
1.36373
1.36339
1.36304
1.36269
1.36233
1.36197
1.36161
1.36124
1.36087
1.3605
1.36012
1.35975
1.35937
1.35899
1.35861
1.35823
1.35785
1.35747
1.35709
1.3567
1.35632
1.35594
1.35556
1.35518
1.3548
1.35442
1.35405
1.35367
1.3533
1.35292
1.35255
1.35218
1.35181
1.35144
1.35108
1.35071
1.35035
1.34999
1.34963
1.34928
1.34892
1.34857
1.34822
1.34787
1.34753
1.34718
1.34684
1.3465
1.34617
1.34583
1.3455
1.34517
1.34484
1.34451
1.34419
1.34387
1.34355
1.34323
1.34291
1.3426
1.34229
1.34198
1.34168
1.34137
1.34107
1.34077
1.34047
1.34018
1.33988
1.33959
1.3393
1.33902
1.33873
1.33845
1.33817
1.33789
1.33761
1.33734
1.33707
1.3368
1.33653
1.33626
1.336
1.33574
1.33548
1.33522
1.33496
1.33471
1.33445
1.3342
1.33395
1.33371
1.33346
1.33322
1.33298
1.33274
1.3325
1.33226
1.33203
1.3318
1.33157
1.33134
1.33111
1.33089
1.33066
1.33044
1.33022
1.33
1.32979
1.32957
1.32936
1.32917
1.3686
1.36859
1.36859
1.3686
1.36861
1.36863
1.36866
1.36869
1.36873
1.36876
1.3688
1.36883
1.36886
1.36888
1.36889
1.3689
1.36889
1.36887
1.36884
1.3688
1.36874
1.36868
1.36859
1.3685
1.36839
1.36827
1.36814
1.36799
1.36784
1.36767
1.36749
1.3673
1.3671
1.3669
1.36668
1.36645
1.36622
1.36598
1.36573
1.36547
1.36521
1.36494
1.36466
1.36438
1.3641
1.36381
1.36351
1.36322
1.36291
1.36261
1.3623
1.36199
1.36167
1.36135
1.36103
1.36071
1.36039
1.36006
1.35974
1.35941
1.35908
1.35875
1.35842
1.35809
1.35776
1.35743
1.35709
1.35676
1.35643
1.3561
1.35577
1.35544
1.3551
1.35477
1.35444
1.35412
1.35379
1.35346
1.35313
1.35281
1.35248
1.35216
1.35184
1.35152
1.3512
1.35088
1.35056
1.35024
1.34993
1.34962
1.34931
1.34899
1.34869
1.34838
1.34807
1.34777
1.34747
1.34716
1.34686
1.34657
1.34627
1.34598
1.34568
1.34539
1.3451
1.34481
1.34453
1.34424
1.34396
1.34368
1.3434
1.34312
1.34284
1.34257
1.34229
1.34202
1.34175
1.34148
1.34122
1.34095
1.34069
1.34043
1.34017
1.33991
1.33965
1.3394
1.33914
1.33889
1.33864
1.33839
1.33814
1.3379
1.33765
1.33741
1.33717
1.33693
1.3367
1.33646
1.33623
1.33599
1.33576
1.33553
1.3353
1.33508
1.33485
1.33463
1.33441
1.33419
1.33397
1.33378
1.3686
1.36859
1.36858
1.36858
1.36859
1.36861
1.36863
1.36866
1.3687
1.36873
1.36877
1.36881
1.36885
1.36888
1.36891
1.36894
1.36896
1.36898
1.36898
1.36898
1.36897
1.36895
1.36893
1.36889
1.36884
1.36878
1.36872
1.36864
1.36856
1.36846
1.36836
1.36824
1.36812
1.36799
1.36785
1.3677
1.36754
1.36738
1.3672
1.36703
1.36684
1.36665
1.36645
1.36624
1.36603
1.36581
1.36559
1.36536
1.36513
1.3649
1.36465
1.36441
1.36416
1.36391
1.36365
1.36339
1.36313
1.36286
1.36259
1.36232
1.36205
1.36178
1.3615
1.36122
1.36094
1.36066
1.36037
1.36009
1.3598
1.35951
1.35923
1.35894
1.35865
1.35836
1.35807
1.35778
1.35748
1.35719
1.3569
1.35661
1.35632
1.35603
1.35573
1.35544
1.35515
1.35486
1.35457
1.35428
1.35399
1.3537
1.35342
1.35313
1.35284
1.35256
1.35227
1.35199