/*--------------------------------*- C++ -*----------------------------------*\
| =========                 |                                                 |
| \\      /  F ield         | OpenFOAM: The Open Source CFD Toolbox           |
|  \\    /   O peration     | Version:  5.x                                   |
|   \\  /    A nd           | Web:      www.OpenFOAM.org                      |
|    \\/     M anipulation  |                                                 |
\*---------------------------------------------------------------------------*/
FoamFile
{
    version     2.0;
    format      ascii;
    class       volScalarField;
    location    "0";
    object      nut;
}
// * * * * * * * * * * * * * * * * * * * * * * * * * * * * * * * * * * * * * //

dimensions      [0 2 -1 0 0 0 0];

internalField   nonuniform List<scalar> 
21600
(
0.0130665
0.0129447
0.0128748
0.0128425
0.0128252
0.0128142
0.012807
0.012802
0.0127986
0.0127961
0.0127944
0.0127933
0.0127925
0.0127921
0.0127918
0.0127918
0.0127918
0.012792
0.0127923
0.0127927
0.0127931
0.0127935
0.012794
0.0127945
0.012795
0.0127956
0.0127961
0.0127967
0.0127973
0.0127979
0.0127984
0.012799
0.0127996
0.0128001
0.0128007
0.0128013
0.0128018
0.0128024
0.012803
0.0128035
0.012804
0.0128046
0.0128051
0.0128056
0.0128061
0.0128067
0.0128072
0.0128077
0.0128082
0.0128086
0.0128091
0.0128096
0.0128101
0.0128105
0.012811
0.0128115
0.0128119
0.0128123
0.0128128
0.0128132
0.0128137
0.0128141
0.0128145
0.0128149
0.0128153
0.0128157
0.0128161
0.0128165
0.0128169
0.0128173
0.0128177
0.0128181
0.0128184
0.0128188
0.0128192
0.0128195
0.0128199
0.0128203
0.0128206
0.0128209
0.0128213
0.0128216
0.012822
0.0128223
0.0128226
0.0128229
0.0128232
0.0128236
0.0128239
0.0128242
0.0128245
0.0128248
0.0128251
0.0128254
0.0128256
0.0128259
0.0128262
0.0128265
0.0128267
0.012827
0.0128273
0.0128275
0.0128278
0.012828
0.0128283
0.0128285
0.0128288
0.012829
0.0128292
0.0128295
0.0128297
0.0128299
0.0128301
0.0128303
0.0128305
0.0128307
0.0128309
0.0128311
0.0128313
0.0128315
0.0128317
0.0128319
0.0128321
0.0128322
0.0128324
0.0128326
0.0128327
0.0128329
0.012833
0.0128332
0.0128333
0.0128334
0.0128336
0.0128337
0.0128338
0.0128339
0.012834
0.0128341
0.0128342
0.0128343
0.0128344
0.0128345
0.0128345
0.0128346
0.0128346
0.0128347
0.0128347
0.0128348
0.0128347
0.012835
0.0384401
0.037563
0.0373945
0.0373155
0.0372576
0.0372138
0.0371794
0.0371521
0.03713
0.0371116
0.0370964
0.0370836
0.0370727
0.0370635
0.0370556
0.0370487
0.0370428
0.0370377
0.0370333
0.0370295
0.0370262
0.0370234
0.037021
0.037019
0.0370172
0.0370158
0.0370145
0.0370135
0.0370127
0.037012
0.0370115
0.0370111
0.0370109
0.0370107
0.0370106
0.0370106
0.0370107
0.0370108
0.037011
0.0370113
0.0370116
0.037012
0.0370123
0.0370128
0.0370132
0.0370137
0.0370142
0.0370148
0.0370153
0.0370159
0.0370165
0.0370171
0.0370177
0.0370183
0.037019
0.0370196
0.0370203
0.0370209
0.0370216
0.0370223
0.037023
0.0370236
0.0370243
0.037025
0.0370257
0.0370264
0.0370271
0.0370278
0.0370285
0.0370292
0.0370299
0.0370306
0.0370313
0.037032
0.0370327
0.0370333
0.037034
0.0370347
0.0370354
0.0370361
0.0370367
0.0370374
0.0370381
0.0370387
0.0370394
0.03704
0.0370407
0.0370413
0.037042
0.0370426
0.0370432
0.0370439
0.0370445
0.0370451
0.0370457
0.0370463
0.0370469
0.0370475
0.0370481
0.0370487
0.0370493
0.0370499
0.0370504
0.037051
0.0370516
0.0370521
0.0370527
0.0370532
0.0370538
0.0370543
0.0370548
0.0370553
0.0370559
0.0370564
0.0370569
0.0370574
0.0370579
0.0370584
0.0370588
0.0370593
0.0370598
0.0370603
0.0370607
0.0370612
0.0370616
0.0370621
0.0370625
0.0370629
0.0370633
0.0370638
0.0370642
0.0370646
0.037065
0.0370654
0.0370657
0.0370661
0.0370665
0.0370668
0.0370672
0.0370675
0.0370679
0.0370682
0.0370686
0.0370689
0.0370692
0.0370695
0.0370698
0.0370701
0.0370703
0.0370704
0.0680384
0.0656733
0.064739
0.0642937
0.0640322
0.0638559
0.0637254
0.0636234
0.0635401
0.0634706
0.0634116
0.0633605
0.0633157
0.0632761
0.0632409
0.0632094
0.0631812
0.0631559
0.063133
0.0631122
0.0630934
0.0630762
0.0630606
0.0630463
0.0630331
0.0630211
0.06301
0.0629998
0.0629904
0.0629817
0.0629736
0.0629662
0.0629593
0.0629529
0.062947
0.0629414
0.0629363
0.0629315
0.0629271
0.0629229
0.0629191
0.0629155
0.0629121
0.062909
0.062906
0.0629033
0.0629008
0.0628984
0.0628962
0.0628941
0.0628922
0.0628904
0.0628887
0.0628871
0.0628857
0.0628843
0.062883
0.0628819
0.0628808
0.0628798
0.0628788
0.062878
0.0628772
0.0628765
0.0628758
0.0628752
0.0628746
0.0628741
0.0628736
0.0628732
0.0628728
0.0628724
0.0628721
0.0628718
0.0628716
0.0628714
0.0628712
0.062871
0.0628709
0.0628708
0.0628707
0.0628707
0.0628706
0.0628706
0.0628706
0.0628707
0.0628707
0.0628708
0.0628708
0.0628709
0.062871
0.0628711
0.0628712
0.0628714
0.0628715
0.0628717
0.0628719
0.062872
0.0628722
0.0628724
0.0628726
0.0628728
0.062873
0.0628733
0.0628735
0.0628737
0.062874
0.0628742
0.0628745
0.0628747
0.062875
0.0628753
0.0628755
0.0628758
0.0628761
0.0628764
0.0628766
0.0628769
0.0628772
0.0628775
0.0628778
0.0628781
0.0628784
0.0628787
0.062879
0.0628793
0.0628796
0.06288
0.0628803
0.0628806
0.0628809
0.0628812
0.0628815
0.0628819
0.0628822
0.0628825
0.0628828
0.0628832
0.0628835
0.0628838
0.0628841
0.0628845
0.0628848
0.0628852
0.0628855
0.0628859
0.0628862
0.0628867
0.062887
0.0628874
0.102473
0.0993011
0.0975794
0.0966076
0.0960014
0.0955861
0.0952794
0.0950403
0.0948456
0.0946828
0.0945434
0.0944216
0.0943141
0.0942184
0.0941325
0.0940551
0.0939849
0.0939211
0.0938627
0.0938091
0.0937598
0.0937143
0.0936722
0.0936332
0.093597
0.0935632
0.0935317
0.0935023
0.0934748
0.093449
0.0934248
0.0934021
0.0933807
0.0933606
0.0933416
0.0933237
0.0933068
0.0932907
0.0932756
0.0932612
0.0932476
0.0932347
0.0932224
0.0932108
0.0931997
0.0931892
0.0931791
0.0931695
0.0931604
0.0931517
0.0931434
0.0931355
0.0931279
0.0931207
0.0931137
0.0931071
0.0931008
0.0930947
0.0930889
0.0930833
0.0930779
0.0930728
0.0930678
0.0930631
0.0930586
0.0930542
0.09305
0.0930459
0.0930421
0.0930383
0.0930347
0.0930312
0.0930279
0.0930247
0.0930216
0.0930186
0.0930157
0.0930129
0.0930102
0.0930076
0.0930051
0.0930027
0.0930004
0.0929981
0.0929959
0.0929938
0.0929918
0.0929898
0.0929879
0.0929861
0.0929843
0.0929826
0.0929809
0.0929793
0.0929777
0.0929762
0.0929747
0.0929733
0.0929719
0.0929706
0.0929693
0.092968
0.0929668
0.0929656
0.0929645
0.0929634
0.0929623
0.0929613
0.0929603
0.0929593
0.0929584
0.0929575
0.0929566
0.0929557
0.0929549
0.0929541
0.0929534
0.0929526
0.0929519
0.0929512
0.0929506
0.0929499
0.0929493
0.0929487
0.0929481
0.0929476
0.092947
0.0929465
0.092946
0.0929456
0.0929451
0.0929447
0.0929443
0.0929439
0.0929436
0.0929432
0.0929429
0.0929426
0.0929423
0.0929421
0.0929418
0.0929416
0.0929414
0.0929412
0.0929411
0.092941
0.0929408
0.092941
0.0929409
0.0929414
0.140633
0.137436
0.135275
0.133853
0.132883
0.132186
0.131658
0.13124
0.130896
0.130604
0.130353
0.130132
0.129937
0.129761
0.129603
0.129459
0.129328
0.129207
0.129096
0.128993
0.128898
0.128809
0.128727
0.12865
0.128577
0.12851
0.128446
0.128386
0.128329
0.128276
0.128226
0.128178
0.128133
0.12809
0.128049
0.128011
0.127974
0.127939
0.127905
0.127874
0.127843
0.127814
0.127787
0.12776
0.127735
0.127711
0.127687
0.127665
0.127644
0.127623
0.127603
0.127584
0.127566
0.127548
0.127532
0.127515
0.1275
0.127484
0.12747
0.127456
0.127442
0.127429
0.127416
0.127404
0.127392
0.127381
0.12737
0.127359
0.127348
0.127338
0.127329
0.127319
0.12731
0.127301
0.127292
0.127284
0.127276
0.127268
0.12726
0.127252
0.127245
0.127238
0.127231
0.127224
0.127218
0.127211
0.127205
0.127199
0.127193
0.127187
0.127182
0.127176
0.127171
0.127166
0.127161
0.127156
0.127151
0.127146
0.127141
0.127137
0.127132
0.127128
0.127124
0.12712
0.127116
0.127112
0.127108
0.127104
0.1271
0.127097
0.127093
0.12709
0.127086
0.127083
0.12708
0.127077
0.127074
0.127071
0.127068
0.127065
0.127062
0.127059
0.127056
0.127054
0.127051
0.127049
0.127046
0.127044
0.127041
0.127039
0.127037
0.127035
0.127033
0.127031
0.127029
0.127027
0.127025
0.127023
0.127021
0.127019
0.127017
0.127016
0.127014
0.127013
0.127011
0.12701
0.127008
0.127007
0.127006
0.127006
0.182301
0.179566
0.17737
0.175726
0.174502
0.17357
0.172835
0.172236
0.171734
0.171304
0.170929
0.170596
0.170299
0.17003
0.169786
0.169562
0.169356
0.169165
0.168988
0.168824
0.16867
0.168526
0.16839
0.168263
0.168143
0.16803
0.167923
0.167822
0.167726
0.167635
0.167549
0.167466
0.167388
0.167313
0.167242
0.167174
0.167109
0.167047
0.166987
0.16693
0.166876
0.166823
0.166773
0.166725
0.166678
0.166633
0.16659
0.166549
0.166509
0.166471
0.166434
0.166398
0.166364
0.16633
0.166298
0.166267
0.166237
0.166208
0.16618
0.166153
0.166126
0.166101
0.166076
0.166052
0.166028
0.166006
0.165984
0.165962
0.165942
0.165921
0.165902
0.165883
0.165864
0.165846
0.165828
0.165811
0.165794
0.165778
0.165762
0.165747
0.165732
0.165717
0.165702
0.165688
0.165675
0.165661
0.165648
0.165635
0.165623
0.16561
0.165598
0.165587
0.165575
0.165564
0.165553
0.165542
0.165532
0.165521
0.165511
0.165501
0.165492
0.165482
0.165473
0.165464
0.165455
0.165446
0.165438
0.165429
0.165421
0.165413
0.165405
0.165397
0.165389
0.165382
0.165374
0.165367
0.16536
0.165353
0.165346
0.165339
0.165333
0.165326
0.16532
0.165314
0.165308
0.165302
0.165296
0.16529
0.165284
0.165279
0.165273
0.165268
0.165263
0.165258
0.165252
0.165248
0.165243
0.165238
0.165233
0.165229
0.165224
0.16522
0.165216
0.165211
0.165207
0.165203
0.165199
0.165196
0.165192
0.16519
0.227715
0.225616
0.223678
0.222062
0.220754
0.219694
0.218821
0.218088
0.21746
0.216911
0.216426
0.21599
0.215596
0.215235
0.214904
0.214598
0.214314
0.214049
0.213801
0.213568
0.213349
0.213142
0.212947
0.212763
0.212588
0.212421
0.212263
0.212113
0.21197
0.211833
0.211702
0.211577
0.211458
0.211343
0.211234
0.211128
0.211028
0.210931
0.210838
0.210748
0.210662
0.210579
0.210499
0.210422
0.210348
0.210276
0.210207
0.21014
0.210076
0.210013
0.209953
0.209894
0.209838
0.209783
0.20973
0.209679
0.209629
0.209581
0.209534
0.209488
0.209444
0.209401
0.209359
0.209319
0.209279
0.209241
0.209203
0.209167
0.209131
0.209097
0.209063
0.20903
0.208998
0.208967
0.208937
0.208907
0.208878
0.20885
0.208822
0.208795
0.208768
0.208743
0.208717
0.208692
0.208668
0.208645
0.208621
0.208599
0.208576
0.208555
0.208533
0.208512
0.208492
0.208472
0.208452
0.208433
0.208414
0.208395
0.208377
0.208359
0.208342
0.208324
0.208308
0.208291
0.208275
0.208259
0.208243
0.208227
0.208212
0.208197
0.208183
0.208168
0.208154
0.20814
0.208126
0.208113
0.2081
0.208087
0.208074
0.208061
0.208049
0.208037
0.208025
0.208013
0.208002
0.20799
0.207979
0.207968
0.207957
0.207947
0.207936
0.207926
0.207916
0.207906
0.207896
0.207886
0.207877
0.207868
0.207858
0.20785
0.207841
0.207832
0.207824
0.207815
0.207807
0.207799
0.207791
0.207784
0.207776
0.207771
0.277306
0.275819
0.274286
0.272874
0.271643
0.270587
0.26968
0.268893
0.268199
0.267581
0.267023
0.266514
0.266046
0.265614
0.265212
0.264835
0.264482
0.26415
0.263836
0.263539
0.263257
0.26299
0.262735
0.262492
0.26226
0.262038
0.261826
0.261623
0.261428
0.261241
0.261062
0.26089
0.260724
0.260565
0.260411
0.260264
0.260121
0.259984
0.259852
0.259724
0.2596
0.259481
0.259366
0.259254
0.259146
0.259042
0.258941
0.258843
0.258748
0.258656
0.258566
0.25848
0.258396
0.258314
0.258235
0.258158
0.258083
0.25801
0.257939
0.25787
0.257803
0.257738
0.257674
0.257612
0.257552
0.257493
0.257436
0.25738
0.257325
0.257272
0.25722
0.257169
0.257119
0.25707
0.257023
0.256977
0.256931
0.256887
0.256843
0.256801
0.256759
0.256718
0.256678
0.256639
0.256601
0.256563
0.256527
0.256491
0.256455
0.25642
0.256386
0.256353
0.25632
0.256288
0.256256
0.256225
0.256195
0.256165
0.256136
0.256107
0.256078
0.25605
0.256023
0.255996
0.255969
0.255943
0.255918
0.255893
0.255868
0.255843
0.255819
0.255796
0.255772
0.25575
0.255727
0.255705
0.255683
0.255662
0.25564
0.25562
0.255599
0.255579
0.255559
0.255539
0.25552
0.255501
0.255482
0.255464
0.255446
0.255428
0.25541
0.255393
0.255376
0.255359
0.255343
0.255326
0.25531
0.255294
0.255279
0.255263
0.255248
0.255233
0.255219
0.255204
0.25519
0.255176
0.255162
0.255149
0.255135
0.255125
0.33159
0.3306
0.329483
0.328369
0.327333
0.326397
0.325558
0.324805
0.324122
0.323499
0.322924
0.32239
0.32189
0.321421
0.320978
0.320558
0.320159
0.319779
0.319417
0.31907
0.318737
0.318419
0.318113
0.317819
0.317536
0.317264
0.317001
0.316748
0.316504
0.316269
0.316042
0.315822
0.31561
0.315404
0.315206
0.315014
0.314828
0.314647
0.314473
0.314304
0.31414
0.31398
0.313826
0.313676
0.313531
0.31339
0.313252
0.313119
0.312989
0.312863
0.312741
0.312621
0.312505
0.312392
0.312282
0.312175
0.312071
0.311969
0.311869
0.311773
0.311678
0.311586
0.311496
0.311408
0.311322
0.311239
0.311157
0.311077
0.310999
0.310922
0.310847
0.310774
0.310703
0.310632
0.310564
0.310497
0.310431
0.310366
0.310303
0.310241
0.31018
0.310121
0.310063
0.310005
0.309949
0.309894
0.30984
0.309787
0.309734
0.309683
0.309633
0.309583
0.309535
0.309487
0.30944
0.309394
0.309348
0.309304
0.30926
0.309217
0.309174
0.309133
0.309091
0.309051
0.309011
0.308972
0.308933
0.308895
0.308858
0.308821
0.308785
0.308749
0.308714
0.308679
0.308645
0.308611
0.308578
0.308546
0.308513
0.308482
0.30845
0.308419
0.308389
0.308359
0.308329
0.3083
0.308271
0.308243
0.308215
0.308187
0.30816
0.308133
0.308107
0.308081
0.308055
0.30803
0.308005
0.30798
0.307955
0.307931
0.307908
0.307884
0.307861
0.307838
0.307816
0.307794
0.307772
0.307751
0.307729
0.307712
0.391125
0.390496
0.38974
0.388939
0.388152
0.387407
0.386714
0.386071
0.385472
0.38491
0.38438
0.383877
0.383397
0.382937
0.382495
0.38207
0.381659
0.381262
0.380878
0.380506
0.380146
0.379797
0.379458
0.379129
0.37881
0.3785
0.378199
0.377906
0.377622
0.377346
0.377077
0.376816
0.376562
0.376315
0.376075
0.375841
0.375614
0.375392
0.375177
0.374967
0.374763
0.374564
0.37437
0.374181
0.373997
0.373818
0.373643
0.373472
0.373306
0.373144
0.372986
0.372831
0.37268
0.372533
0.37239
0.372249
0.372112
0.371978
0.371847
0.371719
0.371594
0.371471
0.371352
0.371235
0.37112
0.371008
0.370898
0.37079
0.370685
0.370581
0.37048
0.370381
0.370284
0.370188
0.370095
0.370003
0.369913
0.369825
0.369738
0.369653
0.36957
0.369488
0.369407
0.369328
0.36925
0.369174
0.369099
0.369025
0.368953
0.368881
0.368811
0.368742
0.368674
0.368607
0.368542
0.368477
0.368413
0.368351
0.368289
0.368228
0.368168
0.368109
0.368051
0.367994
0.367938
0.367882
0.367828
0.367774
0.367721
0.367668
0.367616
0.367566
0.367515
0.367466
0.367417
0.367369
0.367321
0.367274
0.367228
0.367182
0.367137
0.367093
0.367049
0.367006
0.366963
0.366921
0.366879
0.366838
0.366798
0.366758
0.366718
0.366679
0.366641
0.366603
0.366565
0.366528
0.366491
0.366455
0.36642
0.366384
0.366349
0.366315
0.366281
0.366247
0.366214
0.366182
0.366149
0.366117
0.366086
0.366058
0.456499
0.456114
0.455637
0.455111
0.454573
0.454046
0.453539
0.453055
0.452593
0.452148
0.451717
0.451299
0.450889
0.450488
0.450094
0.449706
0.449325
0.44895
0.44858
0.448217
0.447859
0.447508
0.447163
0.446824
0.446491
0.446164
0.445843
0.445529
0.44522
0.444918
0.444622
0.444332
0.444048
0.443769
0.443497
0.44323
0.442969
0.442714
0.442464
0.442219
0.441979
0.441745
0.441515
0.441291
0.441071
0.440856
0.440645
0.440439
0.440238
0.44004
0.439847
0.439658
0.439472
0.439291
0.439113
0.438939
0.438768
0.438601
0.438437
0.438276
0.438119
0.437964
0.437813
0.437665
0.437519
0.437376
0.437236
0.437098
0.436963
0.436831
0.436701
0.436573
0.436447
0.436324
0.436203
0.436084
0.435967
0.435852
0.435739
0.435628
0.435518
0.435411
0.435305
0.435201
0.435099
0.434998
0.434899
0.434801
0.434705
0.434611
0.434518
0.434426
0.434336
0.434247
0.434159
0.434073
0.433987
0.433904
0.433821
0.433739
0.433659
0.43358
0.433502
0.433424
0.433348
0.433274
0.4332
0.433127
0.433055
0.432984
0.432913
0.432844
0.432776
0.432709
0.432642
0.432576
0.432511
0.432447
0.432384
0.432322
0.43226
0.432199
0.432139
0.432079
0.432021
0.431963
0.431905
0.431849
0.431793
0.431738
0.431683
0.431629
0.431576
0.431523
0.431471
0.431419
0.431368
0.431318
0.431268
0.431219
0.43117
0.431122
0.431074
0.431027
0.430981
0.430935
0.430889
0.430845
0.4308
0.43076
0.528342
0.528111
0.527834
0.527523
0.527198
0.526874
0.526557
0.526249
0.525949
0.525654
0.525361
0.525067
0.52477
0.524471
0.524168
0.523861
0.523551
0.523237
0.522922
0.522604
0.522286
0.521967
0.521647
0.521329
0.521011
0.520695
0.520381
0.520069
0.519759
0.519453
0.519149
0.518849
0.518552
0.51826
0.51797
0.517685
0.517404
0.517127
0.516854
0.516585
0.51632
0.51606
0.515803
0.515551
0.515303
0.515059
0.514819
0.514583
0.514351
0.514123
0.513899
0.513679
0.513463
0.51325
0.513041
0.512835
0.512633
0.512434
0.512239
0.512047
0.511858
0.511673
0.51149
0.511311
0.511135
0.510961
0.51079
0.510622
0.510457
0.510295
0.510135
0.509977
0.509822
0.50967
0.50952
0.509372
0.509227
0.509083
0.508942
0.508803
0.508666
0.508531
0.508399
0.508268
0.508139
0.508011
0.507886
0.507762
0.507641
0.50752
0.507402
0.507285
0.50717
0.507056
0.506944
0.506833
0.506724
0.506616
0.50651
0.506405
0.506302
0.506199
0.506098
0.505999
0.5059
0.505803
0.505707
0.505613
0.505519
0.505427
0.505335
0.505245
0.505156
0.505068
0.504981
0.504895
0.50481
0.504726
0.504643
0.504561
0.504479
0.504399
0.50432
0.504242
0.504164
0.504087
0.504011
0.503936
0.503862
0.503789
0.503716
0.503645
0.503574
0.503503
0.503434
0.503365
0.503297
0.50323
0.503163
0.503097
0.503032
0.502968
0.502904
0.50284
0.502778
0.502716
0.502654
0.502594
0.502533
0.502478
0.607327
0.607193
0.607046
0.606888
0.606726
0.606568
0.606417
0.606273
0.606134
0.605996
0.605854
0.605706
0.605548
0.60538
0.6052
0.605008
0.604805
0.60459
0.604365
0.60413
0.603886
0.603634
0.603376
0.603111
0.602842
0.602568
0.60229
0.60201
0.601727
0.601443
0.601158
0.600872
0.600587
0.600301
0.600017
0.599733
0.599451
0.59917
0.598892
0.598615
0.598341
0.598069
0.597799
0.597532
0.597268
0.597007
0.596749
0.596493
0.596241
0.595992
0.595746
0.595502
0.595262
0.595025
0.594791
0.594561
0.594333
0.594108
0.593886
0.593668
0.593452
0.593239
0.593029
0.592822
0.592618
0.592416
0.592218
0.592022
0.591828
0.591637
0.591449
0.591264
0.59108
0.5909
0.590721
0.590545
0.590372
0.590201
0.590032
0.589865
0.5897
0.589537
0.589377
0.589219
0.589062
0.588908
0.588755
0.588605
0.588456
0.588309
0.588164
0.588021
0.58788
0.58774
0.587602
0.587465
0.587331
0.587197
0.587066
0.586936
0.586807
0.58668
0.586555
0.58643
0.586308
0.586186
0.586066
0.585948
0.58583
0.585714
0.5856
0.585486
0.585374
0.585263
0.585153
0.585045
0.584937
0.584831
0.584726
0.584621
0.584518
0.584417
0.584316
0.584216
0.584117
0.584019
0.583922
0.583827
0.583732
0.583638
0.583545
0.583453
0.583362
0.583271
0.583182
0.583093
0.583006
0.582919
0.582833
0.582748
0.582663
0.58258
0.582497
0.582415
0.582333
0.582253
0.582173
0.582094
0.582015
0.581943
0.694186
0.694111
0.694046
0.693987
0.693938
0.6939
0.693877
0.693866
0.693864
0.693867
0.693868
0.693865
0.693851
0.693826
0.693785
0.693729
0.693655
0.693565
0.693458
0.693335
0.693197
0.693045
0.692879
0.692701
0.692511
0.692311
0.692101
0.691883
0.691658
0.691426
0.691188
0.690945
0.690697
0.690445
0.690191
0.689934
0.689674
0.689413
0.68915
0.688887
0.688623
0.688359
0.688096
0.687832
0.687569
0.687307
0.687046
0.686786
0.686528
0.686271
0.686016
0.685762
0.68551
0.68526
0.685013
0.684767
0.684523
0.684282
0.684042
0.683805
0.68357
0.683338
0.683108
0.68288
0.682654
0.682431
0.682209
0.681991
0.681774
0.68156
0.681348
0.681138
0.680931
0.680725
0.680522
0.680321
0.680123
0.679926
0.679732
0.679539
0.679349
0.679161
0.678974
0.67879
0.678608
0.678427
0.678249
0.678073
0.677898
0.677725
0.677554
0.677385
0.677218
0.677052
0.676888
0.676726
0.676565
0.676406
0.676249
0.676093
0.675939
0.675787
0.675636
0.675487
0.675339
0.675192
0.675047
0.674904
0.674762
0.674621
0.674482
0.674344
0.674207
0.674072
0.673938
0.673805
0.673674
0.673544
0.673415
0.673287
0.67316
0.673035
0.672911
0.672788
0.672666
0.672545
0.672426
0.672307
0.67219
0.672073
0.671958
0.671843
0.67173
0.671618
0.671506
0.671396
0.671287
0.671178
0.67107
0.670964
0.670858
0.670753
0.670649
0.670546
0.670444
0.670342
0.670242
0.670142
0.670043
0.669951
0.789716
0.789677
0.789661
0.789663
0.789685
0.789727
0.789789
0.789872
0.789972
0.790084
0.790203
0.790324
0.790441
0.790549
0.790645
0.790726
0.79079
0.790835
0.790862
0.790869
0.790857
0.790827
0.790778
0.790712
0.790629
0.790531
0.790418
0.790291
0.790152
0.79
0.789838
0.789666
0.789485
0.789295
0.789097
0.788893
0.788683
0.788467
0.788246
0.78802
0.787791
0.787558
0.787322
0.787084
0.786844
0.786601
0.786357
0.786112
0.785866
0.78562
0.785373
0.785126
0.784878
0.784631
0.784384
0.784138
0.783893
0.783648
0.783404
0.783161
0.782919
0.782678
0.782438
0.7822
0.781963
0.781727
0.781493
0.78126
0.781029
0.7808
0.780572
0.780345
0.780121
0.779898
0.779676
0.779457
0.779239
0.779022
0.778808
0.778595
0.778384
0.778175
0.777967
0.777761
0.777557
0.777354
0.777153
0.776954
0.776757
0.776561
0.776366
0.776174
0.775983
0.775794
0.775606
0.77542
0.775236
0.775053
0.774871
0.774692
0.774513
0.774337
0.774161
0.773988
0.773815
0.773645
0.773475
0.773307
0.773141
0.772976
0.772812
0.77265
0.772489
0.772329
0.772171
0.772014
0.771858
0.771704
0.771551
0.771399
0.771249
0.771099
0.770951
0.770804
0.770658
0.770514
0.770371
0.770228
0.770087
0.769947
0.769808
0.76967
0.769534
0.769398
0.769263
0.76913
0.768997
0.768866
0.768735
0.768606
0.768477
0.768349
0.768223
0.768097
0.767972
0.767848
0.767725
0.767602
0.767481
0.767368
0.89479
0.894773
0.894785
0.894824
0.894887
0.894975
0.895088
0.895227
0.895391
0.895576
0.895777
0.89599
0.896207
0.896425
0.896638
0.896841
0.897032
0.897208
0.897367
0.897508
0.897629
0.89773
0.897811
0.897873
0.897914
0.897937
0.897942
0.897929
0.897899
0.897853
0.897791
0.897716
0.897627
0.897525
0.897411
0.897286
0.897151
0.897006
0.896853
0.896691
0.896521
0.896345
0.896162
0.895973
0.895779
0.895579
0.895375
0.895168
0.894956
0.894741
0.894523
0.894302
0.894079
0.893854
0.893627
0.893398
0.893168
0.892937
0.892705
0.892472
0.892239
0.892005
0.891771
0.891536
0.891302
0.891067
0.890833
0.890599
0.890366
0.890133
0.8899
0.889668
0.889437
0.889206
0.888977
0.888748
0.88852
0.888293
0.888067
0.887842
0.887618
0.887395
0.887173
0.886953
0.886734
0.886515
0.886298
0.886083
0.885868
0.885655
0.885443
0.885232
0.885023
0.884815
0.884608
0.884402
0.884198
0.883995
0.883794
0.883593
0.883394
0.883197
0.883001
0.882805
0.882612
0.882419
0.882228
0.882038
0.88185
0.881663
0.881477
0.881292
0.881108
0.880926
0.880745
0.880565
0.880387
0.88021
0.880033
0.879859
0.879685
0.879512
0.879341
0.879171
0.879002
0.878834
0.878667
0.878502
0.878337
0.878174
0.878012
0.877851
0.87769
0.877531
0.877373
0.877216
0.877061
0.876906
0.876752
0.876599
0.876447
0.876296
0.876146
0.875997
0.875848
0.875701
0.875555
0.875409
0.875264
0.875129
1.01037
1.01036
1.01039
1.01045
1.01053
1.01065
1.01079
1.01095
1.01115
1.01137
1.01162
1.01189
1.01217
1.01246
1.01276
1.01306
1.01335
1.01364
1.01391
1.01417
1.01442
1.01464
1.01485
1.01505
1.01522
1.01537
1.0155
1.01561
1.01571
1.01578
1.01584
1.01588
1.0159
1.01591
1.0159
1.01588
1.01584
1.01579
1.01573
1.01566
1.01557
1.01547
1.01537
1.01525
1.01513
1.015
1.01486
1.01471
1.01456
1.0144
1.01423
1.01406
1.01388
1.0137
1.01351
1.01332
1.01313
1.01293
1.01273
1.01253
1.01232
1.01211
1.0119
1.01169
1.01147
1.01126
1.01104
1.01082
1.0106
1.01038
1.01016
1.00993
1.00971
1.00949
1.00926
1.00904
1.00881
1.00858
1.00836
1.00813
1.00791
1.00768
1.00746
1.00723
1.00701
1.00678
1.00656
1.00634
1.00611
1.00589
1.00567
1.00545
1.00523
1.00501
1.00479
1.00457
1.00436
1.00414
1.00393
1.00371
1.0035
1.00329
1.00307
1.00286
1.00265
1.00244
1.00224
1.00203
1.00182
1.00162
1.00141
1.00121
1.00101
1.00081
1.00061
1.00041
1.00021
1.00001
0.999818
0.999623
0.999429
0.999237
0.999045
0.998854
0.998664
0.998475
0.998287
0.998101
0.997915
0.99773
0.997546
0.997363
0.997181
0.997
0.996821
0.996642
0.996463
0.996286
0.99611
0.995935
0.99576
0.995587
0.995414
0.995243
0.995072
0.994901
0.994732
0.994564
0.994396
0.99424
1.13749
1.1375
1.13754
1.1376
1.1377
1.13782
1.13797
1.13815
1.13836
1.13859
1.13885
1.13914
1.13946
1.13979
1.14013
1.14049
1.14085
1.14121
1.14158
1.14193
1.14228
1.14261
1.14294
1.14325
1.14354
1.14381
1.14407
1.14431
1.14453
1.14473
1.14491
1.14508
1.14522
1.14535
1.14546
1.14556
1.14564
1.1457
1.14575
1.14578
1.1458
1.1458
1.14579
1.14577
1.14574
1.1457
1.14565
1.14558
1.14551
1.14542
1.14533
1.14523
1.14512
1.14501
1.14489
1.14476
1.14462
1.14448
1.14433
1.14418
1.14402
1.14386
1.14369
1.14352
1.14334
1.14316
1.14298
1.14279
1.1426
1.14241
1.14222
1.14202
1.14182
1.14162
1.14142
1.14121
1.141
1.1408
1.14059
1.14037
1.14016
1.13995
1.13973
1.13952
1.1393
1.13908
1.13887
1.13865
1.13843
1.13821
1.13799
1.13777
1.13755
1.13733
1.13711
1.13689
1.13667
1.13645
1.13623
1.13601
1.13579
1.13557
1.13535
1.13514
1.13492
1.1347
1.13448
1.13427
1.13405
1.13383
1.13362
1.1334
1.13319
1.13298
1.13276
1.13255
1.13234
1.13213
1.13192
1.13171
1.1315
1.13129
1.13108
1.13088
1.13067
1.13047
1.13026
1.13006
1.12985
1.12965
1.12945
1.12925
1.12905
1.12885
1.12865
1.12845
1.12826
1.12806
1.12787
1.12767
1.12748
1.12728
1.12709
1.1269
1.12671
1.12652
1.12633
1.12614
1.12595
1.12577
1.27733
1.27734
1.27738
1.27746
1.27756
1.27769
1.27784
1.27801
1.27822
1.27845
1.27871
1.27899
1.27931
1.27964
1.28001
1.28039
1.28078
1.28118
1.2816
1.28201
1.28243
1.28284
1.28325
1.28365
1.28404
1.28442
1.28479
1.28514
1.28547
1.28579
1.2861
1.28638
1.28665
1.2869
1.28714
1.28735
1.28755
1.28774
1.28791
1.28806
1.28819
1.28831
1.28842
1.28851
1.28859
1.28865
1.2887
1.28874
1.28876
1.28878
1.28878
1.28877
1.28875
1.28872
1.28868
1.28863
1.28858
1.28851
1.28844
1.28836
1.28827
1.28817
1.28807
1.28796
1.28784
1.28772
1.28759
1.28746
1.28732
1.28718
1.28703
1.28688
1.28672
1.28656
1.2864
1.28623
1.28606
1.28589
1.28571
1.28553
1.28535
1.28516
1.28497
1.28478
1.28459
1.2844
1.2842
1.284
1.2838
1.2836
1.2834
1.28319
1.28299
1.28278
1.28257
1.28236
1.28215
1.28194
1.28173
1.28151
1.2813
1.28109
1.28087
1.28066
1.28044
1.28023
1.28001
1.27979
1.27958
1.27936
1.27914
1.27893
1.27871
1.27849
1.27828
1.27806
1.27784
1.27763
1.27741
1.27719
1.27698
1.27676
1.27654
1.27633
1.27611
1.2759
1.27568
1.27547
1.27526
1.27504
1.27483
1.27462
1.2744
1.27419
1.27398
1.27377
1.27356
1.27335
1.27314
1.27293
1.27272
1.27251
1.2723
1.27209
1.27189
1.27168
1.27147
1.27127
1.27106
1.27087
1.43115
1.43116
1.43121
1.43128
1.43139
1.43151
1.43166
1.43184
1.43203
1.43225
1.43249
1.43276
1.43306
1.43339
1.43374
1.43411
1.4345
1.43492
1.43535
1.43579
1.43624
1.43669
1.43715
1.43761
1.43807
1.43852
1.43897
1.43941
1.43984
1.44025
1.44066
1.44105
1.44143
1.44179
1.44214
1.44248
1.4428
1.4431
1.44339
1.44366
1.44391
1.44415
1.44438
1.44459
1.44478
1.44496
1.44513
1.44528
1.44541
1.44554
1.44565
1.44575
1.44583
1.44591
1.44597
1.44602
1.44606
1.44609
1.4461
1.44611
1.44611
1.4461
1.44608
1.44605
1.44602
1.44597
1.44592
1.44586
1.44579
1.44572
1.44564
1.44555
1.44546
1.44536
1.44525
1.44514
1.44503
1.4449
1.44478
1.44465
1.44451
1.44437
1.44423
1.44408
1.44393
1.44378
1.44362
1.44346
1.44329
1.44313
1.44295
1.44278
1.44261
1.44243
1.44225
1.44206
1.44188
1.44169
1.4415
1.44131
1.44112
1.44092
1.44073
1.44053
1.44033
1.44013
1.43993
1.43972
1.43952
1.43931
1.43911
1.4389
1.43869
1.43848
1.43827
1.43806
1.43785
1.43764
1.43743
1.43721
1.437
1.43679
1.43657
1.43636
1.43614
1.43593
1.43571
1.4355
1.43528
1.43506
1.43485
1.43463
1.43441
1.4342
1.43398
1.43376
1.43355
1.43333
1.43311
1.4329
1.43268
1.43246
1.43225
1.43203
1.43181
1.43159
1.43138
1.43116
1.43094
1.43074
1.60034
1.60036
1.60041
1.60048
1.60058
1.60071
1.60086
1.60103
1.60121
1.60142
1.60164
1.60189
1.60217
1.60247
1.60279
1.60314
1.60351
1.60391
1.60432
1.60476
1.60521
1.60567
1.60615
1.60663
1.60712
1.60761
1.60811
1.6086
1.60909
1.60958
1.61006
1.61053
1.611
1.61145
1.61189
1.61233
1.61275
1.61316
1.61355
1.61393
1.6143
1.61465
1.61499
1.61532
1.61563
1.61592
1.6162
1.61647
1.61673
1.61697
1.61719
1.6174
1.6176
1.61779
1.61796
1.61812
1.61827
1.6184
1.61853
1.61864
1.61874
1.61883
1.61891
1.61898
1.61904
1.61909
1.61913
1.61916
1.61918
1.61919
1.61919
1.61919
1.61917
1.61915
1.61912
1.61909
1.61905
1.619
1.61894
1.61888
1.61881
1.61873
1.61865
1.61857
1.61848
1.61838
1.61828
1.61817
1.61806
1.61794
1.61782
1.6177
1.61757
1.61744
1.6173
1.61716
1.61702
1.61687
1.61672
1.61657
1.61641
1.61625
1.61609
1.61592
1.61575
1.61558
1.61541
1.61524
1.61506
1.61488
1.6147
1.61452
1.61433
1.61414
1.61396
1.61377
1.61357
1.61338
1.61319
1.61299
1.61279
1.61259
1.61239
1.61219
1.61199
1.61178
1.61158
1.61137
1.61117
1.61096
1.61075
1.61054
1.61033
1.61012
1.60991
1.6097
1.60948
1.60927
1.60906
1.60884
1.60863
1.60841
1.60819
1.60798
1.60776
1.60754
1.60732
1.6071
1.60688
1.60668
1.78646
1.78648
1.78652
1.78659
1.7867
1.78682
1.78696
1.78713
1.7873
1.7875
1.78771
1.78794
1.78819
1.78846
1.78876
1.78907
1.78941
1.78977
1.79016
1.79056
1.79099
1.79143
1.7919
1.79237
1.79286
1.79336
1.79386
1.79438
1.7949
1.79542
1.79594
1.79646
1.79698
1.79749
1.798
1.79851
1.79901
1.79949
1.79997
1.80044
1.80091
1.80135
1.80179
1.80222
1.80263
1.80303
1.80342
1.8038
1.80416
1.80451
1.80485
1.80518
1.80549
1.80578
1.80607
1.80634
1.8066
1.80685
1.80708
1.80731
1.80752
1.80772
1.8079
1.80808
1.80824
1.8084
1.80854
1.80867
1.80879
1.8089
1.809
1.8091
1.80918
1.80925
1.80931
1.80937
1.80941
1.80945
1.80948
1.8095
1.80952
1.80952
1.80952
1.80952
1.8095
1.80948
1.80945
1.80942
1.80937
1.80933
1.80927
1.80922
1.80915
1.80908
1.80901
1.80893
1.80884
1.80875
1.80866
1.80856
1.80846
1.80835
1.80824
1.80812
1.808
1.80788
1.80775
1.80762
1.80749
1.80735
1.80721
1.80707
1.80692
1.80677
1.80662
1.80646
1.80631
1.80615
1.80598
1.80582
1.80565
1.80548
1.80531
1.80513
1.80496
1.80478
1.8046
1.80442
1.80423
1.80405
1.80386
1.80367
1.80348
1.80329
1.8031
1.8029
1.8027
1.80251
1.80231
1.80211
1.8019
1.8017
1.8015
1.80129
1.80108
1.80088
1.80067
1.80046
1.80025
1.80005
1.99119
1.9912
1.99124
1.99132
1.99141
1.99153
1.99167
1.99183
1.992