/*--------------------------------*- C++ -*----------------------------------*\
| =========                 |                                                 |
| \\      /  F ield         | OpenFOAM: The Open Source CFD Toolbox           |
|  \\    /   O peration     | Version:  5.x                                   |
|   \\  /    A nd           | Web:      www.OpenFOAM.org                      |
|    \\/     M anipulation  |                                                 |
\*---------------------------------------------------------------------------*/
FoamFile
{
    version     2.0;
    format      ascii;
    class       volVectorField;
    location    "0";
    object      U;
}
// * * * * * * * * * * * * * * * * * * * * * * * * * * * * * * * * * * * * * //

dimensions      [0 1 -1 0 0 0 0];

internalField   nonuniform List<vector> 
21600
(
(2.74205 0 -0.000603745)
(2.70469 0 0.000835645)
(2.68767 0 0.000394058)
(2.68165 0 0.00014623)
(2.6785 0 7.34784e-05)
(2.67643 0 4.84599e-05)
(2.6751 0 3.53907e-05)
(2.67419 0 2.65833e-05)
(2.67359 0 1.99371e-05)
(2.67318 0 1.55725e-05)
(2.6729 0 1.23218e-05)
(2.67273 0 9.5255e-06)
(2.67263 0 7.77901e-06)
(2.67258 0 6.30508e-06)
(2.67258 0 5.2202e-06)
(2.6726 0 4.23606e-06)
(2.67265 0 3.35669e-06)
(2.67272 0 2.64509e-06)
(2.6728 0 2.1012e-06)
(2.6729 0 1.63644e-06)
(2.673 0 1.23862e-06)
(2.67311 0 8.974e-07)
(2.67323 0 6.05313e-07)
(2.67335 0 3.53655e-07)
(2.67347 0 1.38061e-07)
(2.67359 0 -4.93604e-08)
(2.67372 0 -2.13773e-07)
(2.67384 0 -3.64277e-07)
(2.67397 0 -4.95915e-07)
(2.6741 0 -6.1164e-07)
(2.67422 0 -7.11607e-07)
(2.67435 0 -8.00289e-07)
(2.67447 0 -8.76756e-07)
(2.6746 0 -9.44631e-07)
(2.67472 0 -1.00288e-06)
(2.67484 0 -1.05487e-06)
(2.67496 0 -1.09945e-06)
(2.67508 0 -1.13952e-06)
(2.6752 0 -1.17327e-06)
(2.67531 0 -1.20378e-06)
(2.67543 0 -1.22916e-06)
(2.67554 0 -1.25221e-06)
(2.67565 0 -1.27087e-06)
(2.67576 0 -1.28813e-06)
(2.67587 0 -1.30165e-06)
(2.67598 0 -1.31419e-06)
(2.67609 0 -1.32332e-06)
(2.67619 0 -1.33198e-06)
(2.6763 0 -1.33775e-06)
(2.6764 0 -1.34334e-06)
(2.6765 0 -1.34622e-06)
(2.6766 0 -1.34929e-06)
(2.6767 0 -1.34995e-06)
(2.6768 0 -1.35094e-06)
(2.6769 0 -1.34947e-06)
(2.67699 0 -1.34864e-06)
(2.67709 0 -1.34567e-06)
(2.67718 0 -1.34337e-06)
(2.67727 0 -1.33892e-06)
(2.67736 0 -1.33536e-06)
(2.67745 0 -1.32981e-06)
(2.67754 0 -1.32521e-06)
(2.67763 0 -1.31847e-06)
(2.67772 0 -1.31288e-06)
(2.6778 0 -1.30538e-06)
(2.67789 0 -1.29899e-06)
(2.67797 0 -1.29059e-06)
(2.67806 0 -1.2835e-06)
(2.67814 0 -1.27459e-06)
(2.67822 0 -1.26691e-06)
(2.6783 0 -1.25724e-06)
(2.67838 0 -1.249e-06)
(2.67846 0 -1.23894e-06)
(2.67853 0 -1.23027e-06)
(2.67861 0 -1.21964e-06)
(2.67869 0 -1.21049e-06)
(2.67876 0 -1.1996e-06)
(2.67883 0 -1.19014e-06)
(2.67891 0 -1.17879e-06)
(2.67898 0 -1.16898e-06)
(2.67905 0 -1.15744e-06)
(2.67912 0 -1.14737e-06)
(2.67919 0 -1.13542e-06)
(2.67926 0 -1.12507e-06)
(2.67933 0 -1.11302e-06)
(2.67939 0 -1.10247e-06)
(2.67946 0 -1.09008e-06)
(2.67952 0 -1.07931e-06)
(2.67959 0 -1.06686e-06)
(2.67965 0 -1.05589e-06)
(2.67971 0 -1.04312e-06)
(2.67978 0 -1.03197e-06)
(2.67984 0 -1.01915e-06)
(2.6799 0 -1.00787e-06)
(2.67996 0 -9.94734e-07)
(2.68001 0 -9.8324e-07)
(2.68007 0 -9.70053e-07)
(2.68013 0 -9.58455e-07)
(2.68018 0 -9.44915e-07)
(2.68024 0 -9.33106e-07)
(2.68029 0 -9.19496e-07)
(2.68035 0 -9.07552e-07)
(2.6804 0 -8.93579e-07)
(2.68045 0 -8.8144e-07)
(2.6805 0 -8.67343e-07)
(2.68055 0 -8.55056e-07)
(2.6806 0 -8.40511e-07)
(2.68065 0 -8.28029e-07)
(2.6807 0 -8.13293e-07)
(2.68074 0 -8.00631e-07)
(2.68079 0 -7.85342e-07)
(2.68084 0 -7.72507e-07)
(2.68088 0 -7.56911e-07)
(2.68092 0 -7.43907e-07)
(2.68097 0 -7.27572e-07)
(2.68101 0 -7.14415e-07)
(2.68105 0 -6.9757e-07)
(2.68109 0 -6.84285e-07)
(2.68113 0 -6.6649e-07)
(2.68116 0 -6.53097e-07)
(2.6812 0 -6.34564e-07)
(2.68124 0 -6.21117e-07)
(2.68127 0 -6.01258e-07)
(2.68131 0 -5.87757e-07)
(2.68134 0 -5.66817e-07)
(2.68137 0 -5.53354e-07)
(2.6814 0 -5.30604e-07)
(2.68143 0 -5.17221e-07)
(2.68146 0 -4.92951e-07)
(2.68149 0 -4.79697e-07)
(2.68152 0 -4.5301e-07)
(2.68154 0 -4.39781e-07)
(2.68157 0 -4.11023e-07)
(2.68159 0 -3.97719e-07)
(2.68161 0 -3.66286e-07)
(2.68164 0 -3.52096e-07)
(2.68165 0 -3.17764e-07)
(2.68167 0 -3.03881e-07)
(2.68169 0 -2.63348e-07)
(2.68171 0 -2.52986e-07)
(2.68172 0 -1.97626e-07)
(2.68173 0 -2.08553e-07)
(2.68174 0 -1.01173e-07)
(2.68175 0 -2.00424e-07)
(2.68175 0 8.08722e-08)
(2.68177 0 -3.19661e-07)
(2.68176 0 4.08396e-07)
(2.68178 0 -9.71767e-07)
(2.68175 0 1.04558e-06)
(2.68184 0 -4.3863e-06)
(4.36753 0 0.00490597)
(4.34929 0 0.00252529)
(4.33375 0 0.000947964)
(4.32582 0 0.000452388)
(4.32146 0 0.000260466)
(4.31874 0 0.000161628)
(4.3171 0 0.000104836)
(4.31608 0 6.91519e-05)
(4.31549 0 4.46336e-05)
(4.31516 0 2.93109e-05)
(4.31502 0 1.80292e-05)
(4.31502 0 1.06747e-05)
(4.3151 0 4.79574e-06)
(4.31525 0 2.89166e-07)
(4.31544 0 -3.0161e-06)
(4.31567 0 -5.38015e-06)
(4.31592 0 -7.29808e-06)
(4.31619 0 -8.79464e-06)
(4.31648 0 -9.93323e-06)
(4.31677 0 -1.0791e-05)
(4.31706 0 -1.14261e-05)
(4.31736 0 -1.18953e-05)
(4.31766 0 -1.22303e-05)
(4.31795 0 -1.24576e-05)
(4.31824 0 -1.25984e-05)
(4.31853 0 -1.26756e-05)
(4.31882 0 -1.26981e-05)
(4.3191 0 -1.26778e-05)
(4.31938 0 -1.26223e-05)
(4.31966 0 -1.2543e-05)
(4.31993 0 -1.24417e-05)
(4.32019 0 -1.23285e-05)
(4.32045 0 -1.22014e-05)
(4.3207 0 -1.20681e-05)
(4.32095 0 -1.19261e-05)
(4.3212 0 -1.17821e-05)
(4.32144 0 -1.16333e-05)
(4.32168 0 -1.14858e-05)
(4.32191 0 -1.13352e-05)
(4.32214 0 -1.11875e-05)
(4.32236 0 -1.10381e-05)
(4.32258 0 -1.08926e-05)
(4.3228 0 -1.07463e-05)
(4.32301 0 -1.06049e-05)
(4.32322 0 -1.04631e-05)
(4.32342 0 -1.03265e-05)
(4.32363 0 -1.01893e-05)
(4.32382 0 -1.00576e-05)
(4.32402 0 -9.92545e-06)
(4.32421 0 -9.79869e-06)
(4.3244 0 -9.67156e-06)
(4.32459 0 -9.54985e-06)
(4.32477 0 -9.4276e-06)
(4.32495 0 -9.31059e-06)
(4.32513 0 -9.19259e-06)
(4.32531 0 -9.07984e-06)
(4.32548 0 -8.96607e-06)
(4.32565 0 -8.85732e-06)
(4.32582 0 -8.74724e-06)
(4.32598 0 -8.64219e-06)
(4.32614 0 -8.53567e-06)
(4.32631 0 -8.43397e-06)
(4.32646 0 -8.33036e-06)
(4.32662 0 -8.23158e-06)
(4.32678 0 -8.13088e-06)
(4.32693 0 -8.03479e-06)
(4.32708 0 -7.93646e-06)
(4.32723 0 -7.8428e-06)
(4.32737 0 -7.74691e-06)
(4.32752 0 -7.65548e-06)
(4.32766 0 -7.56148e-06)
(4.3278 0 -7.472e-06)
(4.32794 0 -7.37997e-06)
(4.32808 0 -7.29226e-06)
(4.32821 0 -7.20177e-06)
(4.32834 0 -7.11562e-06)
(4.32848 0 -7.02675e-06)
(4.32861 0 -6.94213e-06)
(4.32873 0 -6.85453e-06)
(4.32886 0 -6.77119e-06)
(4.32899 0 -6.68499e-06)
(4.32911 0 -6.60286e-06)
(4.32923 0 -6.51762e-06)
(4.32935 0 -6.43651e-06)
(4.32947 0 -6.35242e-06)
(4.32958 0 -6.27229e-06)
(4.3297 0 -6.18896e-06)
(4.32981 0 -6.10966e-06)
(4.32993 0 -6.02728e-06)
(4.33004 0 -5.94871e-06)
(4.33014 0 -5.86687e-06)
(4.33025 0 -5.78889e-06)
(4.33036 0 -5.70775e-06)
(4.33046 0 -5.63031e-06)
(4.33057 0 -5.54945e-06)
(4.33067 0 -5.4723e-06)
(4.33077 0 -5.39187e-06)
(4.33086 0 -5.31499e-06)
(4.33096 0 -5.23454e-06)
(4.33106 0 -5.1577e-06)
(4.33115 0 -5.07741e-06)
(4.33124 0 -5.00056e-06)
(4.33133 0 -4.91993e-06)
(4.33142 0 -4.84284e-06)
(4.33151 0 -4.76205e-06)
(4.3316 0 -4.68465e-06)
(4.33168 0 -4.60313e-06)
(4.33177 0 -4.5252e-06)
(4.33185 0 -4.4431e-06)
(4.33193 0 -4.36452e-06)
(4.33201 0 -4.28123e-06)
(4.33209 0 -4.20178e-06)
(4.33216 0 -4.11743e-06)
(4.33224 0 -4.03698e-06)
(4.33231 0 -3.95081e-06)
(4.33238 0 -3.86919e-06)
(4.33245 0 -3.78131e-06)
(4.33252 0 -3.69833e-06)
(4.33259 0 -3.60787e-06)
(4.33266 0 -3.52336e-06)
(4.33272 0 -3.43041e-06)
(4.33278 0 -3.34421e-06)
(4.33284 0 -3.24755e-06)
(4.3329 0 -3.1594e-06)
(4.33296 0 -3.05914e-06)
(4.33301 0 -2.9689e-06)
(4.33307 0 -2.86346e-06)
(4.33312 0 -2.7709e-06)
(4.33317 0 -2.66028e-06)
(4.33322 0 -2.56513e-06)
(4.33326 0 -2.44723e-06)
(4.33331 0 -2.34906e-06)
(4.33335 0 -2.22354e-06)
(4.33339 0 -2.12173e-06)
(4.33343 0 -1.98685e-06)
(4.33346 0 -1.87865e-06)
(4.3335 0 -1.73397e-06)
(4.33353 0 -1.61863e-06)
(4.33356 0 -1.45988e-06)
(4.33359 0 -1.33754e-06)
(4.33361 0 -1.15296e-06)
(4.33363 0 -1.04502e-06)
(4.33365 0 -7.74675e-07)
(4.33367 0 -7.89078e-07)
(4.33367 0 -1.66263e-07)
(4.33369 0 -7.68197e-07)
(4.33368 0 5.82714e-07)
(4.33371 0 -1.74553e-06)
(4.33368 0 1.20099e-06)
(4.33378 0 -9.62427e-06)
(5.21818 0 0.00554873)
(5.21918 0 0.00285571)
(5.21282 0 0.00131406)
(5.20784 0 0.000718308)
(5.20507 0 0.000428289)
(5.2034 0 0.000262935)
(5.20252 0 0.000164375)
(5.20213 0 0.000100048)
(5.2021 0 6.05335e-05)
(5.20224 0 3.19685e-05)
(5.20254 0 1.20611e-05)
(5.20294 0 -1.93241e-06)
(5.2034 0 -1.10309e-05)
(5.2039 0 -1.80987e-05)
(5.20442 0 -2.32348e-05)
(5.20496 0 -2.68336e-05)
(5.20551 0 -2.95464e-05)
(5.20606 0 -3.14886e-05)
(5.20661 0 -3.28055e-05)
(5.20715 0 -3.36633e-05)
(5.20768 0 -3.41655e-05)
(5.2082 0 -3.44049e-05)
(5.20871 0 -3.44385e-05)
(5.20921 0 -3.43105e-05)
(5.20969 0 -3.40596e-05)
(5.21017 0 -3.37223e-05)
(5.21063 0 -3.33181e-05)
(5.21108 0 -3.28696e-05)
(5.21152 0 -3.2384e-05)
(5.21195 0 -3.18765e-05)
(5.21237 0 -3.13511e-05)
(5.21278 0 -3.08222e-05)
(5.21317 0 -3.02881e-05)
(5.21356 0 -2.97585e-05)
(5.21394 0 -2.92305e-05)
(5.21431 0 -2.87126e-05)
(5.21466 0 -2.82014e-05)
(5.21502 0 -2.77043e-05)
(5.21536 0 -2.72154e-05)
(5.21569 0 -2.67419e-05)
(5.21602 0 -2.62775e-05)
(5.21634 0 -2.58288e-05)
(5.21665 0 -2.53895e-05)
(5.21696 0 -2.49665e-05)
(5.21726 0 -2.45525e-05)
(5.21755 0 -2.41541e-05)
(5.21784 0 -2.37636e-05)
(5.21812 0 -2.3388e-05)
(5.21839 0 -2.30196e-05)
(5.21866 0 -2.26654e-05)
(5.21893 0 -2.23176e-05)
(5.21919 0 -2.19832e-05)
(5.21945 0 -2.16544e-05)
(5.2197 0 -2.1338e-05)
(5.21995 0 -2.10259e-05)
(5.22019 0 -2.07256e-05)
(5.22043 0 -2.04289e-05)
(5.22066 0 -2.01432e-05)
(5.22089 0 -1.98602e-05)
(5.22112 0 -1.95877e-05)
(5.22134 0 -1.93172e-05)
(5.22156 0 -1.90565e-05)
(5.22178 0 -1.87968e-05)
(5.22199 0 -1.85465e-05)
(5.2222 0 -1.82969e-05)
(5.22241 0 -1.80559e-05)
(5.22261 0 -1.78149e-05)
(5.22281 0 -1.75824e-05)
(5.22301 0 -1.73495e-05)
(5.22321 0 -1.71246e-05)
(5.2234 0 -1.68986e-05)
(5.22359 0 -1.66805e-05)
(5.22377 0 -1.64611e-05)
(5.22396 0 -1.6249e-05)
(5.22414 0 -1.60351e-05)
(5.22432 0 -1.58285e-05)
(5.22449 0 -1.56199e-05)
(5.22467 0 -1.54183e-05)
(5.22484 0 -1.52143e-05)
(5.22501 0 -1.50171e-05)
(5.22517 0 -1.48176e-05)
(5.22533 0 -1.46244e-05)
(5.2255 0 -1.44284e-05)
(5.22566 0 -1.42388e-05)
(5.22581 0 -1.40465e-05)
(5.22597 0 -1.38601e-05)
(5.22612 0 -1.36707e-05)
(5.22627 0 -1.34872e-05)
(5.22642 0 -1.33007e-05)
(5.22656 0 -1.31197e-05)
(5.22671 0 -1.29354e-05)
(5.22685 0 -1.27567e-05)
(5.22699 0 -1.25746e-05)
(5.22712 0 -1.23978e-05)
(5.22726 0 -1.22172e-05)
(5.22739 0 -1.20418e-05)
(5.22753 0 -1.18627e-05)
(5.22765 0 -1.16885e-05)
(5.22778 0 -1.15102e-05)
(5.22791 0 -1.13367e-05)
(5.22803 0 -1.11593e-05)
(5.22815 0 -1.09863e-05)
(5.22827 0 -1.08088e-05)
(5.22839 0 -1.06358e-05)
(5.2285 0 -1.04585e-05)
(5.22862 0 -1.02852e-05)
(5.22873 0 -1.0107e-05)
(5.22884 0 -9.93296e-06)
(5.22895 0 -9.75401e-06)
(5.22905 0 -9.57881e-06)
(5.22916 0 -9.39806e-06)
(5.22926 0 -9.22124e-06)
(5.22936 0 -9.03865e-06)
(5.22946 0 -8.8598e-06)
(5.22955 0 -8.67421e-06)
(5.22965 0 -8.49287e-06)
(5.22974 0 -8.30418e-06)
(5.22983 0 -8.11986e-06)
(5.22992 0 -7.92671e-06)
(5.23 0 -7.73892e-06)
(5.23009 0 -7.54114e-06)
(5.23017 0 -7.34931e-06)
(5.23025 0 -7.14504e-06)
(5.23032 0 -6.94859e-06)
(5.2304 0 -6.73757e-06)
(5.23047 0 -6.53592e-06)
(5.23054 0 -6.31568e-06)
(5.23061 0 -6.10822e-06)
(5.23068 0 -5.87815e-06)
(5.23074 0 -5.66415e-06)
(5.2308 0 -5.42071e-06)
(5.23086 0 -5.19938e-06)
(5.23092 0 -4.94102e-06)
(5.23097 0 -4.71122e-06)
(5.23102 0 -4.4344e-06)
(5.23107 0 -4.19105e-06)
(5.23112 0 -3.89551e-06)
(5.23116 0 -3.63427e-06)
(5.2312 0 -3.31599e-06)
(5.23124 0 -3.031e-06)
(5.23127 0 -2.67783e-06)
(5.2313 0 -2.38777e-06)
(5.23132 0 -1.9248e-06)
(5.23135 0 -1.77269e-06)
(5.23136 0 -8.13635e-07)
(5.23138 0 -1.45035e-06)
(5.23138 0 4.66404e-07)
(5.23141 0 -2.59858e-06)
(5.23138 0 7.32798e-07)
(5.23149 0 -1.51699e-05)
(5.8058 0 0.0047307)
(5.81718 0 0.00268149)
(5.81817 0 0.00147777)
(5.81821 0 0.000862926)
(5.81832 0 0.000500706)
(5.81856 0 0.000294338)
(5.81904 0 0.000168033)
(5.81971 0 8.59966e-05)
(5.82052 0 3.13352e-05)
(5.8214 0 -2.86923e-06)
(5.82233 0 -2.78372e-05)
(5.82329 0 -4.50178e-05)
(5.82426 0 -5.60582e-05)
(5.82523 0 -6.40521e-05)
(5.82618 0 -6.94527e-05)
(5.82711 0 -7.28713e-05)
(5.82803 0 -7.50768e-05)
(5.82892 0 -7.62847e-05)
(5.82979 0 -7.66999e-05)
(5.83063 0 -7.65529e-05)
(5.83144 0 -7.59842e-05)
(5.83223 0 -7.51159e-05)
(5.833 0 -7.40286e-05)
(5.83374 0 -7.27804e-05)
(5.83446 0 -7.14211e-05)
(5.83515 0 -6.99962e-05)
(5.83582 0 -6.85322e-05)
(5.83647 0 -6.70559e-05)
(5.8371 0 -6.55764e-05)
(5.83771 0 -6.4111e-05)
(5.8383 0 -6.26634e-05)
(5.83887 0 -6.12501e-05)
(5.83942 0 -5.98678e-05)
(5.83996 0 -5.85261e-05)
(5.84048 0 -5.72203e-05)
(5.84099 0 -5.59583e-05)
(5.84148 0 -5.47354e-05)
(5.84196 0 -5.35583e-05)
(5.84243 0 -5.2419e-05)
(5.84288 0 -5.13239e-05)
(5.84333 0 -5.02647e-05)
(5.84376 0 -4.92472e-05)
(5.84418 0 -4.82631e-05)
(5.84459 0 -4.73192e-05)
(5.84499 0 -4.64059e-05)
(5.84538 0 -4.55294e-05)
(5.84576 0 -4.468e-05)
(5.84614 0 -4.38645e-05)
(5.8465 0 -4.30734e-05)
(5.84686 0 -4.23132e-05)
(5.84721 0 -4.15748e-05)
(5.84755 0 -4.0865e-05)
(5.84789 0 -4.01743e-05)
(5.84821 0 -3.95095e-05)
(5.84854 0 -3.88609e-05)
(5.84885 0 -3.82361e-05)
(5.84916 0 -3.76254e-05)
(5.84947 0 -3.70364e-05)
(5.84976 0 -3.64595e-05)
(5.85006 0 -3.59028e-05)
(5.85035 0 -3.53563e-05)
(5.85063 0 -3.48282e-05)
(5.85091 0 -3.43084e-05)
(5.85118 0 -3.38057e-05)
(5.85145 0 -3.33101e-05)
(5.85171 0 -3.28301e-05)
(5.85197 0 -3.23556e-05)
(5.85223 0 -3.1896e-05)
(5.85248 0 -3.1441e-05)
(5.85272 0 -3.09997e-05)
(5.85297 0 -3.05617e-05)
(5.85321 0 -3.01367e-05)
(5.85344 0 -2.97144e-05)
(5.85367 0 -2.9304e-05)
(5.8539 0 -2.88952e-05)
(5.85413 0 -2.8498e-05)
(5.85435 0 -2.81019e-05)
(5.85457 0 -2.77166e-05)
(5.85478 0 -2.73316e-05)
(5.85499 0 -2.6957e-05)
(5.8552 0 -2.65825e-05)
(5.85541 0 -2.62176e-05)
(5.85561 0 -2.5852e-05)
(5.85581 0 -2.54957e-05)
(5.856 0 -2.51386e-05)
(5.85619 0 -2.47901e-05)
(5.85638 0 -2.44402e-05)
(5.85657 0 -2.40987e-05)
(5.85676 0 -2.37556e-05)
(5.85694 0 -2.34204e-05)
(5.85712 0 -2.3083e-05)
(5.85729 0 -2.27532e-05)
(5.85747 0 -2.24212e-05)
(5.85764 0 -2.20962e-05)
(5.85781 0 -2.17683e-05)
(5.85797 0 -2.14472e-05)
(5.85813 0 -2.11232e-05)
(5.85829 0 -2.08053e-05)
(5.85845 0 -2.04841e-05)
(5.85861 0 -2.01686e-05)
(5.85876 0 -1.98499e-05)
(5.85891 0 -1.95363e-05)
(5.85906 0 -1.92187e-05)
(5.8592 0 -1.89062e-05)
(5.85935 0 -1.85897e-05)
(5.85949 0 -1.82774e-05)
(5.85963 0 -1.79606e-05)
(5.85976 0 -1.76479e-05)
(5.8599 0 -1.73305e-05)
(5.86003 0 -1.70164e-05)
(5.86016 0 -1.6697e-05)
(5.86028 0 -1.63808e-05)
(5.86041 0 -1.6059e-05)
(5.86053 0 -1.57398e-05)
(5.86065 0 -1.5414e-05)
(5.86076 0 -1.50908e-05)
(5.86088 0 -1.47605e-05)
(5.86099 0 -1.44325e-05)
(5.8611 0 -1.40957e-05)
(5.8612 0 -1.37619e-05)
(5.86131 0 -1.34181e-05)
(5.86141 0 -1.30773e-05)
(5.86151 0 -1.27239e-05)
(5.86161 0 -1.23749e-05)
(5.8617 0 -1.20111e-05)
(5.86179 0 -1.16528e-05)
(5.86188 0 -1.12751e-05)
(5.86197 0 -1.09062e-05)
(5.86205 0 -1.0513e-05)
(5.86213 0 -1.01323e-05)
(5.86221 0 -9.71845e-06)
(5.86228 0 -9.32437e-06)
(5.86235 0 -8.8866e-06)
(5.86242 0 -8.47749e-06)
(5.86248 0 -8.00986e-06)
(5.86255 0 -7.57787e-06)
(5.86261 0 -7.08007e-06)
(5.86266 0 -6.61584e-06)
(5.86271 0 -6.08519e-06)
(5.86276 0 -5.57385e-06)
(5.86281 0 -5.00014e-06)
(5.86285 0 -4.45125e-06)
(5.86288 0 -3.75282e-06)
(5.86292 0 -3.32627e-06)
(5.86294 0 -2.04255e-06)
(5.86297 0 -2.5179e-06)
(5.86297 0 -7.74691e-08)
(5.86301 0 -3.69095e-06)
(5.86299 0 -3.28132e-07)
(5.8631 0 -2.08761e-05)
(6.26499 0 0.0037137)
(6.27828 0 0.00219701)
(6.28352 0 0.0012236)
(6.2872 0 0.000712021)
(6.28998 0 0.000396084)
(6.29216 0 0.000204515)
(6.29412 0 8.0157e-05)
(6.29594 0 -3.43428e-06)
(6.29769 0 -5.84151e-05)
(6.29937 0 -9.28782e-05)
(6.30099 0 -0.000117122)
(6.30256 0 -0.000132902)
(6.30408 0 -0.000142188)
(6.30554 0 -0.000148026)
(6.30695 0 -0.00015105)
(6.30831 0 -0.000151996)
(6.30962 0 -0.000151662)
(6.31088 0 -0.000150318)
(6.31209 0 -0.0001482)
(6.31325 0 -0.000145566)
(6.31437 0 -0.00014257)
(6.31545 0 -0.000139348)
(6.31649 0 -0.00013599)
(6.31749 0 -0.000132559)
(6.31845 0 -0.000129105)
(6.31938 0 -0.000125675)
(6.32028 0 -0.000122295)
(6.32114 0 -0.000118992)
(6.32197 0 -0.000115772)
(6.32277 0 -0.000112648)
(6.32355 0 -0.000109622)
(6.3243 0 -0.000106707)
(6.32503 0 -0.000103896)
(6.32573 0 -0.000101196)
(6.32641 0 -9.85972e-05)
(6.32707 0 -9.61054e-05)
(6.32771 0 -9.37123e-05)
(6.32833 0 -9.14217e-05)
(6.32893 0 -8.92224e-05)
(6.32952 0 -8.71177e-05)
(6.33009 0 -8.50963e-05)
(6.33064 0 -8.31615e-05)
(6.33118 0 -8.13024e-05)
(6.33171 0 -7.95236e-05)
(6.33222 0 -7.7813e-05)
(6.33271 0 -7.61747e-05)
(6.3332 0 -7.45969e-05)
(6.33367 0 -7.30844e-05)
(6.33414 0 -7.16256e-05)
(6.33459 0 -7.02258e-05)
(6.33503 0 -6.8874e-05)
(6.33546 0 -6.75757e-05)
(6.33588 0 -6.63196e-05)
(6.3363 0 -6.51115e-05)
(6.3367 0 -6.39401e-05)
(6.3371 0 -6.28121e-05)
(6.33748 0 -6.17164e-05)
(6.33786 0 -6.06598e-05)
(6.33823 0 -5.96314e-05)
(6.3386 0 -5.86388e-05)
(6.33896 0 -5.76709e-05)
(6.33931 0 -5.67351e-05)
(6.33965 0 -5.58205e-05)
(6.33999 0 -5.49353e-05)
(6.34032 0 -5.40685e-05)
(6.34065 0 -5.32284e-05)
(6.34097 0 -5.2404e-05)
(6.34128 0 -5.16043e-05)
(6.34159 0 -5.08185e-05)
(6.34189 0 -5.00551e-05)
(6.34219 0 -4.93033e-05)
(6.34249 0 -4.85724e-05)
(6.34277 0 -4.78515e-05)
(6.34306 0 -4.71497e-05)
(6.34334 0 -4.64561e-05)
(6.34361 0 -4.57805e-05)
(6.34388 0 -4.5112e-05)
(6.34415 0 -4.44602e-05)
(6.34441 0 -4.3814e-05)
(6.34467 0 -4.31835e-05)
(6.34492 0 -4.25579e-05)
(6.34517 0 -4.19467e-05)
(6.34541 0 -4.13392e-05)
(6.34566 0 -4.07453e-05)
(6.34589 0 -4.01545e-05)
(6.34613 0 -3.95762e-05)
(6.34636 0 -3.9e-05)
(6.34658 0 -3.84359e-05)
(6.34681 0 -3.78733e-05)
(6.34703 0 -3.73218e-05)
(6.34724 0 -3.67709e-05)
(6.34746 0 -3.62306e-05)
(6.34767 0 -3.56906e-05)
(6.34787 0 -3.516e-05)
(6.34808 0 -3.4629e-05)
(6.34828 0 -3.41068e-05)
(6.34847 0 -3.35839e-05)
(6.34867 0 -3.30688e-05)
(6.34886 0 -3.25523e-05)
(6.34904 0 -3.2043e-05)
(6.34923 0 -3.15321e-05)
(6.34941 0 -3.10275e-05)
(6.34959 0 -3.05204e-05)
(6.34976 0 -3.00191e-05)
(6.34994 0 -2.95152e-05)
(6.35011 0 -2.90159e-05)
(6.35027 0 -2.85134e-05)
(6.35044 0 -2.80147e-05)
(6.3506 0 -2.75128e-05)
(6.35076 0 -2.70135e-05)
(6.35091 0 -2.651e-05)
(6.35106 0 -2.60087e-05)
(6.35121 0 -2.5503e-05)
(6.35136 0 -2.49981e-05)
(6.3515 0 -2.44878e-05)
(6.35164 0 -2.39779e-05)
(6.35178 0 -2.34621e-05)
(6.35192 0 -2.29456e-05)
(6.35205 0 -2.24217e-05)
(6.35218 0 -2.1897e-05)
(6.3523 0 -2.13638e-05)
(6.35243 0 -2.08289e-05)
(6.35255 0 -2.0283e-05)
(6.35267 0 -1.97362e-05)
(6.35278 0 -1.91759e-05)
(6.35289 0 -1.86152e-05)
(6.353 0 -1.8036e-05)
(6.35311 0 -1.74592e-05)
(6.35321 0 -1.68584e-05)
(6.35331 0 -1.62633e-05)
(6.3534 0 -1.5634e-05)
(6.3535 0 -1.50184e-05)
(6.35358 0 -1.4355e-05)
(6.35367 0 -1.37163e-05)
(6.35375 0 -1.30103e-05)
(6.35383 0 -1.23382e-05)
(6.3539 0 -1.15878e-05)
(6.35398 0 -1.08675e-05)
(6.35404 0 -1.00722e-05)
(6.35411 0 -9.27785e-06)
(6.35416 0 -8.43038e-06)
(6.35422 0 -7.55922e-06)
(6.35427 0 -6.57556e-06)
(6.35432 0 -5.79232e-06)
(6.35435 0 -4.18796e-06)
(6.3544 0 -4.36008e-06)
(6.35441 0 -1.39779e-06)
(6.35446 0 -5.35935e-06)
(6.35444 0 -2.00887e-06)
(6.35456 0 -2.68267e-05)
(6.6499 0 0.00285949)
(6.66108 0 0.00151128)
(6.66761 0 0.000760715)
(6.67311 0 0.000372558)
(6.67761 0 0.000131166)
(6.68124 0 -1.57383e-05)
(6.6844 0 -0.000113926)
(6.68722 0 -0.000180608)
(6.6898 0 -0.000223547)
(6.69221 0 -0.000248875)
(6.69448 0 -0.000265302)
(6.69662 0 -0.000274231)
(6.69865 0 -0.00027734)
(6.70059 0 -0.000277356)
(6.70244 0 -0.000274882)
(6.7042 0 -0.00027065)
(6.70589 0 -0.000265396)
(6.7075 0 -0.000259378)
(6.70905 0 -0.000252822)
(6.71053 0 -0.000245975)
(6.71195 0 -0.000238977)
(6.71332 0 -0.000231953)
(6.71463 0 -0.000224989)
(6.71589 0 -0.000218139)
(6.7171 0 -0.000211443)
(6.71826 0 -0.000204936)
(6.71938 0 -0.000198641)
(6.72046 0 -0.000192575)
(6.7215 0 -0.000186735)
(6.7225 0 -0.000181128)
(6.72347 0 -0.000175747)
(6.72441 0 -0.000170598)
(6.72531 0 -0.00016567)
(6.72618 0 -0.000160959)
(6.72703 0 -0.000156453)
(6.72784 0 -0.000152149)
(6.72864 0 -0.000148035)
(6.7294 0 -0.000144109)
(6.73015 0 -0.000140354)
(6.73087 0 -0.00013677)
(6.73157 0 -0.00013334)
(6.73226 0 -0.000130064)
(6.73292 0 -0.000126927)
(6.73356 0 -0.000123929)
(6.73419 0 -0.000121056)
(6.7348 0 -0.000118307)
(6.7354 0 -0.000115669)
(6.73598 0 -0.000113142)
(6.73655 0 -0.000110713)
(6.7371 0 -0.000108385)
(6.73764 0 -0.000106143)
(6.73816 0 -0.000103991)
(6.73868 0 -0.000101917)
(6.73918 0 -9.99229e-05)
(6.73967 0 -9.79964e-05)
(6.74015 0 -9.61421e-05)
(6.74062 0 -9.43475e-05)
(6.74108 0 -9.26176e-05)
(6.74153 0 -9.09405e-05)
(6.74197 0 -8.93221e-05)
(6.74241 0 -8.77502e-05)
(6.74283 0 -8.62309e-05)
(6.74325 0 -8.47521e-05)
(6.74365 0 -8.33211e-05)
(6.74405 0 -8.19259e-05)
(6.74445 0 -8.05737e-05)
(6.74483 0 -7.92528e-05)
(6.74521 0 -7.79714e-05)
(6.74558 0 -7.67178e-05)
(6.74594 0 -7.54999e-05)
(6.7463 0 -7.43061e-05)
(6.74665 0 -7.31451e-05)
(6.747 0 -7.20055e-05)
(6.74734 0 -7.08957e-05)
(6.74767 0 -6.98044e-05)
(6.748 0 -6.87406e-05)
(6.74832 0 -6.76933e-05)
(6.74864 0 -6.66712e-05)
(6.74895 0 -6.56634e-05)
(6.74926 0 -6.4679e-05)
(6.74956 0 -6.37073e-05)
(6.74986 0 -6.2757e-05)
(6.75015 0 -6.18173e-05)
(6.75044 0 -6.08977e-05)
(6.75072 0 -5.99875e-05)
(6.751 0 -5.90956e-05)
(6.75127 0 -5.82116e-05)
(6.75154 0 -5.73448e-05)
(6.7518 0 -5.64849e-05)
(6.75207 0 -5.56406e-05)
(6.75232 0 -5.48019e-05)
(6.75258 0 -5.39778e-05)
(6.75282 0 -5.31584e-05)
(6.75307 0 -5.23522e-05)
(6.75331 0 -5.15494e-05)
(6.75355 0 -5.07586e-05)
(6.75378 0 -4.99708e-05)
(6.75401 0 -4.91935e-05)
(6.75423 0 -4.84181e-05)
(6.75446 0 -4.76521e-05)
(6.75468 0 -4.68876e-05)
(6.75489 0 -4.61311e-05)
(6.7551 0 -4.5375e-05)
(6.75531 0 -4.46258e-05)
(6.75551 0 -4.38767e-05)
(6.75572 0 -4.31329e-05)
(6.75591 0 -4.23882e-05)
(6.75611 0 -4.16477e-05)
(6.7563 0 -4.09061e-05)
(6.75649 0 -4.01669e-05)
(6.75667 0 -3.94256e-05)
(6.75685 0 -3.86854e-05)
(6.75703 0 -3.79429e-05)
(6.7572 0 -3.71995e-05)
(6.75737 0 -3.64528e-05)
(6.75754 0 -3.57041e-05)
(6.75771 0 -3.49516e-05)
(6.75787 0 -3.41951e-05)
(6.75802 0 -3.34333e-05)
(6.75818 0 -3.26665e-05)
(6.75833 0 -3.18935e-05)
(6.75848 0 -3.11137e-05)
(6.75862 0 -3.03252e-05)
(6.75876 0 -2.95296e-05)
(6.7589 0 -2.87229e-05)
(6.75903 0 -2.79084e-05)
(6.75916 0 -2.70778e-05)
(6.75929 0 -2.62414e-05)
(6.75941 0 -2.53827e-05)
(6.75954 0 -2.45209e-05)
(6.75965 0 -2.36254e-05)
(6.75977 0 -2.27348e-05)
(6.75987 0 -2.17948e-05)
(6.75998 0 -2.08713e-05)
(6.76008 0 -1.9875e-05)
(6.76018 0 -1.8907e-05)
(6.76027 0 -1.78496e-05)
(6.76036 0 -1.68166e-05)
(6.76044 0 -1.56994e-05)
(6.76052 0 -1.45632e-05)
(6.7606 0 -1.33831e-05)
(6.76067 0 -1.21265e-05)
(6.76073 0 -1.07999e-05)
(6.7608 0 -9.58439e-06)
(6.76085 0 -7.63542e-06)
(6.76091 0 -7.37513e-06)
(6.76093 0 -3.95815e-06)
(6.761 0 -8.05043e-06)
(6.761 0 -4.55866e-06)
(6.76112 0 -3.34434e-05)
(6.98627 0 0.00219141)
(6.99446 0 0.00087511)
(7.00038 0 0.000218109)
(7.00611 0 -9.06225e-05)
(7.01126 0 -0.00025868)
(7.01566 0 -0.000347963)
(7.01957 0 -0.000406209)
(7.02307 0 -0.000443717)
(7.02627 0 -0.000464994)
(7.02924 0 -0.000473423)
(7.03201 0 -0.000475792)
(7.03462 0 -0.000472746)
(7.03708 0 -0.000465451)
(7.03941 0 -0.000456087)
(7.04163 0 -0.000445046)
(7.04375 0 -0.00043295)
(7.04577 0 -0.000420396)
(7.0477 0 -0.000407565)
(7.04955 0 -0.000394637)
(7.05131 0 -0.000381812)
(7.05301 0 -0.000369192)
(7.05463 0 -0.000356867)
(7.05619 0 -0.000344906)
(7.05769 0 -0.000333341)
(7.05913 0 -0.00032219)
(7.06052 0 -0.000311471)
(7.06186 0 -0.000301193)
(7.06314 0 -0.000291358)
(7.06438 0 -0.000281951)
(7.06558 0 -0.000272965)
(7.06673 0 -0.000264382)
(7.06784 0 -0.000256198)
(7.06892 0 -0.000248392)
(7.06996 0 -0.000240951)
(7.07097 0 -0.000233852)
(7.07194 0 -0.000227086)
(7.07289 0 -0.000220632)
(7.0738 0 -0.000214482)
(7.07469 0 -0.000208612)
(7.07555 0 -0.000203015)
(7.07639 0 -0.000197668)
(7.0772 0 -0.000192565)
(7.07799 0 -0.000187687)
(7.07875 0 -0.000183028)
(7.0795 0 -0.000178569)
(7.08023 0 -0.000174307)
(7.08094 0 -0.000170221)
(7.08163 0 -0.000166311)
(7.0823 0 -0.000162558)
(7.08295 0 -0.000158961)
(7.08359 0 -0.000155504)
(7.08422 0 -0.000152188)
(7.08483 0 -0.000148996)
(7.08542 0 -0.000145929)
(7.08601 0 -0.000142971)
(7.08657 0 -0.000140125)
(7.08713 0 -0.000137377)
(7.08768 0 -0.000134728)
(7.08821 0 -0.000132166)
(7.08873 0 -0.000129695)
(7.08924 0 -0.0001273)
(7.08974 0 -0.000124986)
(7.09023 0 -0.000122739)
(7.09071 0 -0.000120565)
(7.09118 0 -0.000118452)
(7.09165 0 -0.000116404)
(7.0921 0 -0.00011441)
(7.09254 0 -0.000112475)
(7.09298 0 -0.000110588)
(7.09341 0 -0.000108755)
(7.09383 0 -0.000106964)
(7.09424 0 -0.000105222)
(7.09465 0 -0.000103518)
(7.09505 0 -0.000101858)
(7.09544 0 -0.000100232)
(7.09582 0 -9.86465e-05)
(7.0962 0 -9.70909e-05)
(7.09657 0 -9.55727e-05)
(7.09694 0 -9.40809e-05)
(7.0973 0 -9.26236e-05)
(7.09765 0 -9.11899e-05)
(7.098 0 -8.97876e-05)
(7.09834 0 -8.84061e-05)
(7.09868 0 -8.70537e-05)
(7.09901 0 -8.57198e-05)
(7.09933 0 -8.44125e-05)
(7.09965 0 -8.31214e-05)
(7.09997 0 -8.18549e-05)
(7.10028 0 -8.0603e-05)
(7.10058 0 -7.93734e-05)
(7.10088 0 -7.81564e-05)
(7.10118 0 -7.69599e-05)
(7.10147 0 -7.57747e-05)
(7.10175 0 -7.46078e-05)
(7.10203 0 -7.34504e-05)
(7.10231 0 -7.23096e-05)
(7.10258 0 -7.11771e-05)
(7.10285 0 -7.00592e-05)
(7.10311 0 -6.89481e-05)
(7.10337 0 -6.78499e-05)
(7.10363 0 -6.67577e-05)
(7.10388 0 -6.56763e-05)
(7.10413 0 -6.45995e-05)
(7.10437 0 -6.35318e-05)
(7.10461 0 -6.24681e-05)
(7.10484 0 -6.14112e-05)
(7.10507 0 -6.03571e-05)
(7.1053 0 -5.93081e-05)
(7.10552 0 -5.82613e-05)
(7.10574 0 -5.7217e-05)
(7.10596 0 -5.61739e-05)
(7.10617 0 -5.51314e-05)
(7.10638 0 -5.40896e-05)
(7.10658 0 -5.30456e-05)
(7.10678 0 -5.20011e-05)
(7.10698 0 -5.09525e-05)
(7.10717 0 -4.99029e-05)
(7.10736 0 -4.88462e-05)
(7.10755 0 -4.77871e-05)
(7.10773 0 -4.67188e-05)
(7.10791 0 -4.56473e-05)
(7.10808 0 -4.45635e-05)
(7.10825 0 -4.34743e-05)
(7.10842 0 -4.23711e-05)
(7.10858 0 -4.12601e-05)
(7.10874 0 -4.01332e-05)
(7.1089 0 -3.89936e-05)
(7.10905 0 -3.78387e-05)
(7.10919 0 -3.66644e-05)
(7.10934 0 -3.54766e-05)
(7.10948 0 -3.42572e-05)
(7.10961 0 -3.30316e-05)
(7.10974 0 -3.17567e-05)
(7.10987 0 -3.04871e-05)
(7.10999 0 -2.9142e-05)
(7.11011 0 -2.7815e-05)
(7.11023 0 -2.63905e-05)
(7.11034 0 -2.49821e-05)
(7.11044 0 -2.3479e-05)
(7.11054 0 -2.19371e-05)
(7.11063 0 -2.03588e-05)
(7.11073 0 -1.86491e-05)
(7.11081 0 -1.69144e-05)
(7.11089 0 -1.51901e-05)
(7.11096 0 -1.28529e-05)
(7.11104 0 -1.20472e-05)
(7.11108 0 -8.251e-06)
(7.11117 0 -1.22323e-05)
(7.11118 0 -8.43692e-06)
(7.11131 0 -4.11795e-05)
(7.28828 0 0.001698)
(7.2939 0 0.000364854)
(7.29842 0 -0.00030185)
(7.30335 0 -0.000589411)
(7.30829 0 -0.000714892)
(7.31281 0 -0.000755785)
(7.31696 0 -0.000773932)
(7.32078 0 -0.000778774)
(7.3243 0 -0.000773846)
(7.3276 0 -0.000761004)
(7.33069 0 -0.000745333)
(7.3336 0 -0.000726741)
(7.33636 0 -0.000705906)
(7.33898 0 -0.000684396)
(7.34148 0 -0.000662325)
(7.34386 0 -0.000640151)
(7.34614 0 -0.000618282)
(7.34832 0 -0.000596792)
(7.35041 0 -0.000575789)
(7.35241 0 -0.000555408)
(7.35433 0 -0.000535691)
(7.35617 0 -0.000516685)
(7.35795 0 -0.000498428)
(7.35965 0 -0.000480922)
(7.3613 0 -0.000464158)
(7.36288 0 -0.00044813)
(7.3644 0 -0.000432827)
(7.36587 0 -0.000418234)
(7.36729 0 -0.000404318)
(7.36866 0 -0.000391056)
(7.36999 0 -0.000378415)
(7.37126 0 -0.00036638)
(7.3725 0 -0.000354917)
(7.3737 0 -0.000344001)
(7.37486 0 -0.000333599)
(7.37598 0 -0.00032369)
(7.37707 0 -0.000314247)
(7.37812 0 -0.000305249)
(7.37915 0 -0.000296669)
(7.38014 0 -0.000288487)
(7.38111 0 -0.000280676)
(7.38204 0 -0.000273222)
(7.38296 0 -0.0002661)
(7.38384 0 -0.000259297)
(7.38471 0 -0.000252791)
(7.38555 0 -0.00024657)
(7.38637 0 -0.000240611)
(7.38716 0 -0.000234907)
(7.38794 0 -0.000229436)
(7.3887 0 -0.000224193)
(7.38944 0 -0.000219157)
(7.39016 0 -0.000214325)
(7.39087 0 -0.000209679)
(7.39156 0 -0.000205213)
(7.39223 0 -0.000200912)
(7.39289 0 -0.000196773)
(7.39353 0 -0.00019278)
(7.39416 0 -0.000188933)
(7.39478 0 -0.000185216)
(7.39538 0 -0.000181629)
(7.39598 0 -0.000178159)
(7.39655 0 -0.000174807)
(7.39712 0 -0.000171557)
(7.39768 0 -0.000168413)
(7.39822 0 -0.000165362)
(7.39876 0 -0.000162405)
(7.39928 0 -0.000159531)
(7.39979 0 -0.000156743)
(7.4003 0 -0.000154029)
(7.40079 0 -0.000151393)
(7.40128 0 -0.000148822)
(7.40175 0 -0.000146323)
(7.40222 0 -0.000143883)
(7.40268 0 -0.000141507)
(7.40313 0 -0.000139185)
(7.40358 0 -0.00013692)
(7.40401 0 -0.000134704)
(7.40444 0 -0.000132541)
(7.40486 0 -0.000130421)
(7.40528 0 -0.00012835)
(7.40568 0 -0.000126318)
(7.40608 0 -0.00012433)
(7.40648 0 -0.000122377)
(7.40687 0 -0.000120465)
(7.40725 0 -0.000118584)
(7.40762 0 -0.000116741)
(7.40799 0 -0.000114925)
(7.40835 0 -0.000113144)
(7.40871 0 -0.000111388)
(7.40906 0 -0.000109663)
(7.4094 0 -0.000107961)
(7.40974 0 -0.000106287)
(7.41008 0 -0.000104633)
(7.41041 0 -0.000103005)
(7.41073 0 -0.000101395)
(7.41105 0 -9.98073e-05)
(7.41136 0 -9.82357e-05)
(7.41167 0 -9.66844e-05)
(7.41198 0 -9.51467e-05)
(7.41227 0 -9.36269e-05)
(7.41257 0 -9.21194e-05)
(7.41286 0 -9.06269e-05)
(7.41314 0 -8.91447e-05)
(7.41342 0 -8.76752e-05)
(7.4137 0 -8.62149e-05)
(7.41397 0 -8.47642e-05)
(7.41423 0 -8.33211e-05)
(7.4145 0 -8.18852e-05)
(7.41475 0 -8.04559e-05)
(7.41501 0 -7.90304e-05)
(7.41526 0 -7.76103e-05)
(7.4155 0 -7.61911e-05)
(7.41574 0 -7.47765e-05)
(7.41598 0 -7.33591e-05)
(7.41621 0 -7.19451e-05)
(7.41644 0 -7.05253e-05)
(7.41666 0 -6.91083e-05)
(7.41688 0 -6.76813e-05)
(7.4171 0 -6.62557e-05)
(7.41731 0 -6.4817e-05)
(7.41752 0 -6.33787e-05)
(7.41772 0 -6.19228e-05)
(7.41792 0 -6.04653e-05)
(7.41811 0 -5.89871e-05)
(7.4183 0 -5.75049e-05)
(7.41849 0 -5.59986e-05)
(7.41867 0 -5.44833e-05)
(7.41885 0 -5.29429e-05)
(7.41902 0 -5.13869e-05)
(7.41919 0 -4.98058e-05)