# Probe 0 (-148.88 18.28 2)
# Probe 1 (-7.31 59.55 2)
# Probe 2 (7.31 59.55 2)
# Probe 3 (103.22 12.67 2)
# Probe 4 (272.95 33.51 2)
# Probe 5 (595.53 73.12 2)
#       Probe             0             1             2             3             4             5
#        Time
            1             (8.35398 -3.05252e-07 0.00337753)             (8.1552 0.00286902 0.00117264)             (8.1517 0.00162425 0.00101353)             (8.19734 -5.61682e-05 0.000605066)             (8.1205 -4.02505e-05 0.000468052)             (8.24998 -2.25747e-05 0.000538223)
            2             (8.35351 1.43834e-05 0.00281575)             (8.14694 0.0041817 0.000604766)             (8.14372 0.00204598 0.000487713)             (8.20588 4.66143e-05 0.000155708)             (8.11211 -2.84909e-06 -5.95006e-05)             (8.25004 -1.10063e-05 -5.62107e-06)
