# Probe 0 (0.316 0 0)
# Probe 1 (0.613 0 0)
# Probe 2 (0.92 0 0)
# Probe 3 (1.23 0 0)
# Probe 4 (1.53 0 0)
# Probe 5 (1.84 0 0)
# Probe 6 (2.15 0 0)
# Probe 7 (2.38 0 0)
#       Probe             0             1             2             3             4             5             6             7
#        Time
            1      0.156386     0.0283196    0.00361613   0.000240213   1.66692e-05   8.02978e-07   4.91116e-08   5.21489e-09
            2      0.191232     0.0837197     0.0403729     0.0148394    0.00439213   0.000809543   0.000138331   3.03829e-05
            3      0.192807     0.0925932     0.0570137     0.0349253     0.0212187     0.0105534     0.0045396    0.00196319
            4      0.192903     0.0930357     0.0588474     0.0396926     0.0290598     0.0204992     0.0141428    0.00982269
            5      0.192925     0.0930946     0.0589622     0.0400933     0.0301968     0.0230972     0.0183723     0.0151783
            6      0.192916     0.0931041     0.0589884     0.0401359     0.0302863     0.0233745     0.0190713     0.0164482
            7      0.192954     0.0931117     0.0589913     0.0401456     0.0303026     0.0234069     0.0191309     0.0165578
            8      0.192967     0.0931138     0.0589971     0.0401508     0.0303087     0.0234092     0.0191398     0.0165774
            9      0.192973     0.0931177     0.0590017     0.0401549     0.0303136     0.0234133      0.019143     0.0165818
           10      0.192942     0.0931155     0.0590008     0.0401564     0.0303165     0.0234163     0.0191467     0.0165893
           11      0.192949     0.0930941     0.0589862     0.0401518     0.0303152     0.0234194     0.0191576     0.0166083
           12      0.192977     0.0931052      0.058987     0.0401437     0.0303064     0.0234186     0.0191581     0.0166085
           13      0.192989     0.0931181     0.0589944     0.0401463     0.0303055      0.023415      0.019154     0.0166053
           14      0.192998     0.0931243     0.0589993     0.0401498     0.0303079     0.0234161     0.0191535     0.0166035
           15      0.193007     0.0931302     0.0590026     0.0401518     0.0303096     0.0234175     0.0191545     0.0166041
           16      0.193011     0.0931344     0.0590054     0.0401535     0.0303106     0.0234182     0.0191552     0.0166048
           17      0.193014     0.0931371     0.0590072     0.0401548     0.0303115     0.0234189     0.0191557     0.0166051
           18      0.193017     0.0931387     0.0590084     0.0401556     0.0303121     0.0234193      0.019156     0.0166054
           19      0.193017     0.0931398     0.0590091     0.0401561     0.0303125     0.0234196     0.0191562     0.0166056
           20      0.193018     0.0931405     0.0590096     0.0401563     0.0303127     0.0234197     0.0191563     0.0166056
           21       0.19302     0.0931409     0.0590099     0.0401565     0.0303128     0.0234198     0.0191563     0.0166057
           22      0.193019     0.0931413     0.0590101     0.0401567     0.0303129     0.0234198     0.0191564     0.0166057
           23      0.193019     0.0931415     0.0590102     0.0401567     0.0303129     0.0234198     0.0191564     0.0166057
           24      0.193021     0.0931416     0.0590103     0.0401568     0.0303129     0.0234198     0.0191563     0.0166056
           25       0.19302     0.0931417     0.0590103     0.0401568     0.0303129     0.0234198     0.0191563     0.0166056
           26      0.193019     0.0931417     0.0590103     0.0401568     0.0303129     0.0234198     0.0191563     0.0166056
           27      0.193021     0.0931416     0.0590103     0.0401568     0.0303129     0.0234198     0.0191563     0.0166056
           28       0.19302     0.0931416     0.0590103     0.0401568     0.0303129     0.0234198     0.0191563     0.0166055
           29      0.193019     0.0931415     0.0590102     0.0401567     0.0303129     0.0234197     0.0191562     0.0166055
           30       0.19302     0.0931415     0.0590102     0.0401567     0.0303128     0.0234197     0.0191562     0.0166055
           31      0.193019     0.0931415     0.0590102     0.0401567     0.0303128     0.0234197     0.0191562     0.0166055
           32      0.193019     0.0931414     0.0590101     0.0401567     0.0303128     0.0234197     0.0191562     0.0166055
           33       0.19302     0.0931413     0.0590101     0.0401566     0.0303128     0.0234197     0.0191562     0.0166054
           34      0.193019     0.0931412     0.0590101     0.0401566     0.0303128     0.0234197     0.0191561     0.0166054
           35      0.193019     0.0931412       0.05901     0.0401566     0.0303128     0.0234196     0.0191561     0.0166054
           36       0.19302     0.0931411       0.05901     0.0401566     0.0303127     0.0234196     0.0191561     0.0166054
           37      0.193019     0.0931411       0.05901     0.0401566     0.0303127     0.0234196     0.0191561     0.0166054
           38      0.193018      0.093141     0.0590099     0.0401565     0.0303127     0.0234196     0.0191561     0.0166054
           39       0.19302      0.093141     0.0590099     0.0401565     0.0303127     0.0234196     0.0191561     0.0166054
           40      0.193019      0.093141     0.0590099     0.0401565     0.0303127     0.0234196     0.0191561     0.0166054
           41      0.193018     0.0931409     0.0590099     0.0401565     0.0303127     0.0234196     0.0191561     0.0166054
           42      0.193019     0.0931407     0.0590098     0.0401565     0.0303127     0.0234196     0.0191561     0.0166053
           43      0.193018     0.0931407     0.0590097     0.0401564     0.0303127     0.0234196     0.0191561     0.0166053
           44      0.193018     0.0931406     0.0590097     0.0401564     0.0303126     0.0234196     0.0191561     0.0166053
           45      0.193019     0.0931406     0.0590097     0.0401564     0.0303126     0.0234195      0.019156     0.0166053
           46      0.193018     0.0931406     0.0590097     0.0401564     0.0303126     0.0234195      0.019156     0.0166053
           47      0.193018     0.0931406     0.0590097     0.0401564     0.0303126     0.0234195      0.019156     0.0166053
           48      0.193019     0.0931406     0.0590097     0.0401564     0.0303126     0.0234195      0.019156     0.0166053
           49      0.193018     0.0931406     0.0590097     0.0401564     0.0303126     0.0234195      0.019156     0.0166053
           50      0.193018     0.0931406     0.0590097     0.0401564     0.0303126     0.0234195      0.019156     0.0166053
           51      0.193019     0.0931405     0.0590097     0.0401564     0.0303126     0.0234195      0.019156     0.0166053
           52      0.193018     0.0931406     0.0590097     0.0401564     0.0303126     0.0234195      0.019156     0.0166053
           53      0.193018     0.0931406     0.0590097     0.0401564     0.0303126     0.0234195      0.019156     0.0166053
           54      0.193019     0.0931405     0.0590097     0.0401564     0.0303126     0.0234195      0.019156     0.0166053
           55      0.193018     0.0931406     0.0590097     0.0401564     0.0303126     0.0234195      0.019156     0.0166053
           56      0.193018     0.0931406     0.0590097     0.0401564     0.0303126     0.0234195      0.019156     0.0166053
           57      0.193019     0.0931405     0.0590097     0.0401564     0.0303126     0.0234195      0.019156     0.0166053
           58      0.193018     0.0931405     0.0590097     0.0401564     0.0303126     0.0234195      0.019156     0.0166053
           59      0.193018     0.0931405     0.0590097     0.0401564     0.0303126     0.0234195      0.019156     0.0166053
           60      0.193019     0.0931405     0.0590097     0.0401564     0.0303126     0.0234195      0.019156     0.0166053
           61      0.193018     0.0931406     0.0590097     0.0401564     0.0303126     0.0234195      0.019156     0.0166053
           62      0.193018     0.0931405     0.0590097     0.0401564     0.0303126     0.0234195      0.019156     0.0166053
           63      0.193019     0.0931405     0.0590097     0.0401564     0.0303126     0.0234195      0.019156     0.0166053
           64      0.193018     0.0931405     0.0590097     0.0401564     0.0303126     0.0234195      0.019156     0.0166053
           65      0.193017     0.0931405     0.0590097     0.0401564     0.0303126     0.0234195      0.019156     0.0166053
           66      0.193019     0.0931405     0.0590097     0.0401564     0.0303126     0.0234195      0.019156     0.0166053
           67      0.193018     0.0931406     0.0590097     0.0401564     0.0303126     0.0234195      0.019156     0.0166053
           68      0.193018     0.0931405     0.0590097     0.0401564     0.0303126     0.0234195      0.019156     0.0166053
           69      0.193019     0.0931405     0.0590097     0.0401564     0.0303126     0.0234195      0.019156     0.0166053
           70      0.193018     0.0931405     0.0590097     0.0401564     0.0303126     0.0234195      0.019156     0.0166053
           71      0.193017     0.0931405     0.0590097     0.0401564     0.0303126     0.0234195      0.019156     0.0166053
           72      0.193019     0.0931405     0.0590097     0.0401564     0.0303126     0.0234195      0.019156     0.0166053
           73      0.193018     0.0931406     0.0590097     0.0401564     0.0303126     0.0234195      0.019156     0.0166053
           74      0.193017     0.0931405     0.0590097     0.0401564     0.0303126     0.0234195      0.019156     0.0166053
           75      0.193019     0.0931405     0.0590097     0.0401564     0.0303126     0.0234195      0.019156     0.0166053
           76      0.193018     0.0931405     0.0590097     0.0401564     0.0303126     0.0234195      0.019156     0.0166053
           77      0.193017     0.0931405     0.0590097     0.0401564     0.0303126     0.0234195      0.019156     0.0166053
           78      0.193019     0.0931405     0.0590097     0.0401564     0.0303126     0.0234195      0.019156     0.0166053
           79      0.193018     0.0931406     0.0590097     0.0401564     0.0303126     0.0234195      0.019156     0.0166053
           80      0.193017     0.0931405     0.0590097     0.0401564     0.0303126     0.0234195      0.019156     0.0166053
           81      0.193019     0.0931405     0.0590097     0.0401564     0.0303126     0.0234195      0.019156     0.0166053
           82      0.193018     0.0931405     0.0590097     0.0401564     0.0303126     0.0234195      0.019156     0.0166053
           83      0.193017     0.0931405     0.0590097     0.0401564     0.0303126     0.0234195      0.019156     0.0166053
           84      0.193019     0.0931405     0.0590097     0.0401564     0.0303126     0.0234195      0.019156     0.0166053
           85      0.193018     0.0931405     0.0590097     0.0401564     0.0303126     0.0234195      0.019156     0.0166053
           86      0.193017     0.0931405     0.0590097     0.0401564     0.0303126     0.0234195      0.019156     0.0166053
           87      0.193019     0.0931405     0.0590097     0.0401564     0.0303126     0.0234195      0.019156     0.0166053
           88      0.193018     0.0931405     0.0590097     0.0401564     0.0303126     0.0234195      0.019156     0.0166053
           89      0.193017     0.0931405     0.0590097     0.0401564     0.0303126     0.0234195      0.019156     0.0166053
           90      0.193019     0.0931405     0.0590097     0.0401564     0.0303126     0.0234195      0.019156     0.0166053
           91      0.193018     0.0931405     0.0590097     0.0401564     0.0303126     0.0234195      0.019156     0.0166053
           92      0.193017     0.0931405     0.0590097     0.0401564     0.0303126     0.0234195      0.019156     0.0166053
           93      0.193019     0.0931405     0.0590097     0.0401564     0.0303126     0.0234195      0.019156     0.0166053
           94      0.193018     0.0931405     0.0590097     0.0401564     0.0303126     0.0234195      0.019156     0.0166053
           95      0.193017     0.0931405     0.0590097     0.0401564     0.0303126     0.0234195      0.019156     0.0166053
           96      0.193019     0.0931405     0.0590097     0.0401564     0.0303126     0.0234195      0.019156     0.0166053
           97      0.193018     0.0931405     0.0590097     0.0401564     0.0303126     0.0234195      0.019156     0.0166053
           98      0.193017     0.0931405     0.0590097     0.0401564     0.0303126     0.0234195      0.019156     0.0166053
           99      0.193019     0.0931405     0.0590097     0.0401564     0.0303126     0.0234195      0.019156     0.0166053
          100      0.193018     0.0931405     0.0590097     0.0401564     0.0303126     0.0234195      0.019156     0.0166053
          101      0.193017     0.0931405     0.0590097     0.0401564     0.0303126     0.0234195      0.019156     0.0166053
          102      0.193019     0.0931405     0.0590097     0.0401564     0.0303126     0.0234195      0.019156     0.0166053
          103      0.193018     0.0931405     0.0590097     0.0401564     0.0303126     0.0234195      0.019156     0.0166053
          104      0.193017     0.0931405     0.0590097     0.0401564     0.0303126     0.0234195      0.019156     0.0166053
          105      0.193019     0.0931405     0.0590097     0.0401564     0.0303126     0.0234195      0.019156     0.0166053
          106      0.193018     0.0931405     0.0590097     0.0401564     0.0303126     0.0234195      0.019156     0.0166053
          107      0.193017     0.0931405     0.0590097     0.0401564     0.0303126     0.0234195      0.019156     0.0166053
          108      0.193019     0.0931405     0.0590097     0.0401564     0.0303126     0.0234195      0.019156     0.0166053
          109      0.193018     0.0931405     0.0590097     0.0401564     0.0303126     0.0234195      0.019156     0.0166053
          110      0.193017     0.0931405     0.0590097     0.0401564     0.0303126     0.0234195      0.019156     0.0166053
          111      0.193019     0.0931405     0.0590097     0.0401564     0.0303126     0.0234195      0.019156     0.0166053
          112      0.193018     0.0931405     0.0590097     0.0401564     0.0303126     0.0234195      0.019156     0.0166053
          113      0.193017     0.0931405     0.0590097     0.0401564     0.0303126     0.0234195      0.019156     0.0166053
          114      0.193019     0.0931405     0.0590097     0.0401564     0.0303126     0.0234195      0.019156     0.0166053
          115      0.193018     0.0931405     0.0590097     0.0401564     0.0303126     0.0234195      0.019156     0.0166053
          116      0.193017     0.0931405     0.0590097     0.0401564     0.0303126     0.0234195      0.019156     0.0166053
          117      0.193019     0.0931405     0.0590097     0.0401564     0.0303126     0.0234195      0.019156     0.0166053
          118      0.193018     0.0931405     0.0590097     0.0401564     0.0303126     0.0234195      0.019156     0.0166053
          119      0.193017     0.0931405     0.0590097     0.0401564     0.0303126     0.0234195      0.019156     0.0166053
          120      0.193019     0.0931405     0.0590097     0.0401564     0.0303126     0.0234195      0.019156     0.0166053
          121      0.193018     0.0931405     0.0590097     0.0401564     0.0303126     0.0234195      0.019156     0.0166053
          122      0.193017     0.0931405     0.0590097     0.0401564     0.0303126     0.0234195      0.019156     0.0166053
          123      0.193019     0.0931405     0.0590097     0.0401564     0.0303126     0.0234195      0.019156     0.0166053
          124      0.193018     0.0931405     0.0590097     0.0401564     0.0303126     0.0234195      0.019156     0.0166053
          125      0.193017     0.0931405     0.0590097     0.0401564     0.0303126     0.0234195      0.019156     0.0166053
          126      0.193019     0.0931405     0.0590097     0.0401564     0.0303126     0.0234195      0.019156     0.0166053
          127      0.193018     0.0931405     0.0590097     0.0401564     0.0303126     0.0234195      0.019156     0.0166053
          128      0.193017     0.0931405     0.0590097     0.0401564     0.0303126     0.0234195      0.019156     0.0166053
          129      0.193019     0.0931405     0.0590097     0.0401564     0.0303126     0.0234195      0.019156     0.0166053
          130      0.193018     0.0931405     0.0590097     0.0401564     0.0303126     0.0234195      0.019156     0.0166053
          131      0.193017     0.0931405     0.0590097     0.0401564     0.0303126     0.0234195      0.019156     0.0166053
          132      0.193019     0.0931405     0.0590097     0.0401564     0.0303126     0.0234195      0.019156     0.0166053
          133      0.193018     0.0931405     0.0590097     0.0401564     0.0303126     0.0234195      0.019156     0.0166053
          134      0.193017     0.0931405     0.0590097     0.0401564     0.0303126     0.0234195      0.019156     0.0166053
          135      0.193019     0.0931405     0.0590097     0.0401564     0.0303126     0.0234195      0.019156     0.0166053
          136      0.193018     0.0931405     0.0590097     0.0401564     0.0303126     0.0234195      0.019156     0.0166053
          137      0.193017     0.0931405     0.0590097     0.0401564     0.0303126     0.0234195      0.019156     0.0166053
          138      0.193019     0.0931405     0.0590097     0.0401564     0.0303126     0.0234195      0.019156     0.0166053
          139      0.193018     0.0931405     0.0590097     0.0401564     0.0303126     0.0234195      0.019156     0.0166053
          140      0.193017     0.0931405     0.0590097     0.0401564     0.0303126     0.0234195      0.019156     0.0166053
          141      0.193019     0.0931405     0.0590097     0.0401564     0.0303126     0.0234195      0.019156     0.0166053
          142      0.193018     0.0931405     0.0590097     0.0401564     0.0303126     0.0234195      0.019156     0.0166053
          143      0.193017     0.0931405     0.0590097     0.0401564     0.0303126     0.0234195      0.019156     0.0166053
          144      0.193019     0.0931405     0.0590097     0.0401564     0.0303126     0.0234195      0.019156     0.0166053
          145      0.193018     0.0931405     0.0590097     0.0401564     0.0303126     0.0234195      0.019156     0.0166053
          146      0.193017     0.0931405     0.0590097     0.0401564     0.0303126     0.0234195      0.019156     0.0166053
          147      0.193019     0.0931405     0.0590097     0.0401564     0.0303126     0.0234195      0.019156     0.0166053
          148      0.193018     0.0931405     0.0590097     0.0401564     0.0303126     0.0234195      0.019156     0.0166053
          149      0.193017     0.0931405     0.0590097     0.0401564     0.0303126     0.0234195      0.019156     0.0166053
          150      0.193019     0.0931405     0.0590097     0.0401564     0.0303126     0.0234195      0.019156     0.0166053
          151      0.193018     0.0931405     0.0590097     0.0401564     0.0303126     0.0234195      0.019156     0.0166053
          152      0.193017     0.0931405     0.0590097     0.0401564     0.0303126     0.0234195      0.019156     0.0166053
          153      0.193019     0.0931405     0.0590097     0.0401564     0.0303126     0.0234195      0.019156     0.0166053
          154      0.193018     0.0931405     0.0590097     0.0401564     0.0303126     0.0234195      0.019156     0.0166053
          155      0.193017     0.0931405     0.0590097     0.0401564     0.0303126     0.0234195      0.019156     0.0166053
          156      0.193019     0.0931405     0.0590097     0.0401564     0.0303126     0.0234195      0.019156     0.0166053
          157      0.193018     0.0931405     0.0590097     0.0401564     0.0303126     0.0234195      0.019156     0.0166053
          158      0.193017     0.0931405     0.0590097     0.0401564     0.0303126     0.0234195      0.019156     0.0166053
          159      0.193019     0.0931405     0.0590097     0.0401564     0.0303126     0.0234195      0.019156     0.0166053
          160      0.193018     0.0931405     0.0590097     0.0401564     0.0303126     0.0234195      0.019156     0.0166053
          161      0.193017     0.0931405     0.0590097     0.0401564     0.0303126     0.0234195      0.019156     0.0166053
          162      0.193019     0.0931405     0.0590097     0.0401564     0.0303126     0.0234195      0.019156     0.0166053
          163      0.193018     0.0931405     0.0590097     0.0401564     0.0303126     0.0234195      0.019156     0.0166053
          164      0.193017     0.0931405     0.0590097     0.0401564     0.0303126     0.0234195      0.019156     0.0166053
          165      0.193019     0.0931405     0.0590097     0.0401564     0.0303126     0.0234195      0.019156     0.0166053
          166      0.193018     0.0931405     0.0590097     0.0401564     0.0303126     0.0234195      0.019156     0.0166053
          167      0.193017     0.0931405     0.0590097     0.0401564     0.0303126     0.0234195      0.019156     0.0166053
          168      0.193019     0.0931405     0.0590097     0.0401564     0.0303126     0.0234195      0.019156     0.0166053
          169      0.193018     0.0931405     0.0590097     0.0401564     0.0303126     0.0234195      0.019156     0.0166053
          170      0.193017     0.0931405     0.0590097     0.0401564     0.0303126     0.0234195      0.019156     0.0166053
          171      0.193019     0.0931405     0.0590097     0.0401564     0.0303126     0.0234195      0.019156     0.0166053
          172      0.193018     0.0931405     0.0590097     0.0401564     0.0303126     0.0234195      0.019156     0.0166053
          173      0.193017     0.0931405     0.0590097     0.0401564     0.0303126     0.0234195      0.019156     0.0166053
          174      0.193019     0.0931405     0.0590097     0.0401564     0.0303126     0.0234195      0.019156     0.0166053
          175      0.193018     0.0931405     0.0590097     0.0401564     0.0303126     0.0234195      0.019156     0.0166053
          176      0.193017     0.0931405     0.0590097     0.0401564     0.0303126     0.0234195      0.019156     0.0166053
          177      0.193019     0.0931405     0.0590097     0.0401564     0.0303126     0.0234195      0.019156     0.0166053
          178      0.193018     0.0931405     0.0590097     0.0401564     0.0303126     0.0234195      0.019156     0.0166053
          179      0.193017     0.0931405     0.0590097     0.0401564     0.0303126     0.0234195      0.019156     0.0166053
          180      0.193019     0.0931405     0.0590097     0.0401564     0.0303126     0.0234195      0.019156     0.0166053
          181      0.193018     0.0931405     0.0590097     0.0401564     0.0303126     0.0234195      0.019156     0.0166053
          182      0.193017     0.0931405     0.0590097     0.0401564     0.0303126     0.0234195      0.019156     0.0166053
          183      0.193019     0.0931405     0.0590097     0.0401564     0.0303126     0.0234195      0.019156     0.0166053
          184      0.193018     0.0931405     0.0590097     0.0401564     0.0303126     0.0234195      0.019156     0.0166053
          185      0.193017     0.0931405     0.0590097     0.0401564     0.0303126     0.0234195      0.019156     0.0166053
          186      0.193019     0.0931405     0.0590097     0.0401564     0.0303126     0.0234195      0.019156     0.0166053
          187      0.193018     0.0931405     0.0590097     0.0401564     0.0303126     0.0234195      0.019156     0.0166053
          188      0.193017     0.0931405     0.0590097     0.0401564     0.0303126     0.0234195      0.019156     0.0166053
          189      0.193019     0.0931405     0.0590097     0.0401564     0.0303126     0.0234195      0.019156     0.0166053
          190      0.193018     0.0931405     0.0590097     0.0401564     0.0303126     0.0234195      0.019156     0.0166053
          191      0.193017     0.0931405     0.0590097     0.0401564     0.0303126     0.0234195      0.019156     0.0166053
          192      0.193019     0.0931405     0.0590097     0.0401564     0.0303126     0.0234195      0.019156     0.0166053
          193      0.193018     0.0931405     0.0590097     0.0401564     0.0303126     0.0234195      0.019156     0.0166053
          194      0.193017     0.0931405     0.0590097     0.0401564     0.0303126     0.0234195      0.019156     0.0166053
          195      0.193019     0.0931405     0.0590097     0.0401564     0.0303126     0.0234195      0.019156     0.0166053
          196      0.193018     0.0931405     0.0590097     0.0401564     0.0303126     0.0234195      0.019156     0.0166053
          197      0.193017     0.0931405     0.0590097     0.0401564     0.0303126     0.0234195      0.019156     0.0166053
          198      0.193019     0.0931405     0.0590097     0.0401564     0.0303126     0.0234195      0.019156     0.0166053
          199      0.193018     0.0931405     0.0590097     0.0401564     0.0303126     0.0234195      0.019156     0.0166053
          200      0.193017     0.0931405     0.0590097     0.0401564     0.0303126     0.0234195      0.019156     0.0166053
          201      0.193019     0.0931405     0.0590097     0.0401564     0.0303126     0.0234195      0.019156     0.0166053
          202      0.193018     0.0931405     0.0590097     0.0401564     0.0303126     0.0234195      0.019156     0.0166053
          203      0.193017     0.0931405     0.0590097     0.0401564     0.0303126     0.0234195      0.019156     0.0166053
          204      0.193019     0.0931405     0.0590097     0.0401564     0.0303126     0.0234195      0.019156     0.0166053
          205      0.193018     0.0931405     0.0590097     0.0401564     0.0303126     0.0234195      0.019156     0.0166053
          206      0.193017     0.0931405     0.0590097     0.0401564     0.0303126     0.0234195      0.019156     0.0166053
          207      0.193019     0.0931405     0.0590097     0.0401564     0.0303126     0.0234195      0.019156     0.0166053
          208      0.193018     0.0931405     0.0590097     0.0401564     0.0303126     0.0234195      0.019156     0.0166053
          209      0.193017     0.0931405     0.0590097     0.0401564     0.0303126     0.0234195      0.019156     0.0166053
          210      0.193019     0.0931405     0.0590097     0.0401564     0.0303126     0.0234195      0.019156     0.0166053
          211      0.193018     0.0931405     0.0590097     0.0401564     0.0303126     0.0234195      0.019156     0.0166053
          212      0.193017     0.0931405     0.0590097     0.0401564     0.0303126     0.0234195      0.019156     0.0166053
          213      0.193019     0.0931405     0.0590097     0.0401564     0.0303126     0.0234195      0.019156     0.0166053
          214      0.193018     0.0931405     0.0590097     0.0401564     0.0303126     0.0234195      0.019156     0.0166053
          215      0.193017     0.0931405     0.0590097     0.0401564     0.0303126     0.0234195      0.019156     0.0166053
          216      0.193019     0.0931405     0.0590097     0.0401564     0.0303126     0.0234195      0.019156     0.0166053
          217      0.193018     0.0931405     0.0590097     0.0401564     0.0303126     0.0234195      0.019156     0.0166053
          218      0.193017     0.0931405     0.0590097     0.0401564     0.0303126     0.0234195      0.019156     0.0166053
          219      0.193019     0.0931405     0.0590097     0.0401564     0.0303126     0.0234195      0.019156     0.0166053
          220      0.193018     0.0931405     0.0590097     0.0401564     0.0303126     0.0234195      0.019156     0.0166053
          221      0.193017     0.0931405     0.0590097     0.0401564     0.0303126     0.0234195      0.019156     0.0166053
          222      0.193019     0.0931405     0.0590097     0.0401564     0.0303126     0.0234195      0.019156     0.0166053
          223      0.193018     0.0931405     0.0590097     0.0401564     0.0303126     0.0234195      0.019156     0.0166053
          224      0.193017     0.0931405     0.0590097     0.0401564     0.0303126     0.0234195      0.019156     0.0166053
          225      0.193019     0.0931405     0.0590097     0.0401564     0.0303126     0.0234195      0.019156     0.0166053
