# Probe 0 (0.316 0 0)
# Probe 1 (0.613 0 0)
# Probe 2 (0.92 0 0)
# Probe 3 (1.23 0 0)
# Probe 4 (1.53 0 0)
# Probe 5 (1.84 0 0)
# Probe 6 (2.15 0 0)
# Probe 7 (2.38 0 0)
#       Probe             0             1             2             3             4             5             6             7
#        Time
            1      0.143062     0.0263496    0.00345892   0.000248999   1.92189e-05   1.06116e-06   7.41631e-08   8.79512e-09
            2      0.166886     0.0726092     0.0362077     0.0136613    0.00415829   0.000818765   0.000153156   3.66468e-05
            3      0.168194     0.0788093     0.0485149     0.0302186     0.0187503    0.00951226    0.00420137    0.00188616
            4      0.168298     0.0792002       0.04985     0.0335896     0.0246497      0.017541     0.0122427    0.00859517
            5      0.168311     0.0792485      0.049952     0.0338969     0.0254552     0.0193941     0.0153999     0.0127403
            6      0.168321     0.0792594     0.0499738     0.0339347     0.0255303     0.0195977     0.0158868     0.0136186
            7      0.168325     0.0792609     0.0499797     0.0339447     0.0255459     0.0196242     0.0159391     0.0137201
            8      0.168326     0.0792564     0.0499767     0.0339472      0.025551     0.0196315     0.0159497     0.0137355
            9      0.168325     0.0792534     0.0499769     0.0339465     0.0255514     0.0196336     0.0159533     0.0137403
           10      0.168335     0.0792573     0.0499772     0.0339464     0.0255519     0.0196342     0.0159542     0.0137417
           11      0.168347     0.0792587     0.0499785     0.0339478     0.0255521     0.0196344     0.0159547     0.0137423
           12      0.168357     0.0792678     0.0499792      0.033948     0.0255527     0.0196349     0.0159549     0.0137425
           13      0.168367     0.0792733     0.0499846     0.0339497      0.025553      0.019635     0.0159551     0.0137427
           14      0.168377     0.0792776     0.0499866     0.0339519     0.0255547     0.0196358     0.0159553     0.0137428
           15      0.168378      0.079284     0.0499881     0.0339532     0.0255558     0.0196366      0.015956     0.0137432
           16      0.168395     0.0792879     0.0499932      0.033954     0.0255558     0.0196368     0.0159563     0.0137435
           17      0.168396     0.0792894     0.0499945     0.0339561     0.0255575     0.0196373     0.0159563     0.0137434
           18      0.168392     0.0792944     0.0499939     0.0339571      0.025558     0.0196381      0.015957     0.0137438
           19      0.168402     0.0792923     0.0499972     0.0339566     0.0255576     0.0196382     0.0159571     0.0137441
           20      0.168397      0.079293     0.0499963     0.0339575     0.0255586     0.0196383      0.015957     0.0137439
           21      0.168402     0.0792913     0.0499971     0.0339573     0.0255583     0.0196385     0.0159573     0.0137441
           22      0.168425     0.0793036     0.0499982     0.0339577     0.0255584     0.0196383     0.0159571      0.013744
           23      0.168434     0.0793106     0.0500037     0.0339596     0.0255591     0.0196385     0.0159571      0.013744
           24      0.168432     0.0793114     0.0500056     0.0339627     0.0255611     0.0196394     0.0159575     0.0137441
           25      0.168432     0.0793053     0.0500057     0.0339622     0.0255617     0.0196404     0.0159583     0.0137447
           26      0.168426     0.0793061     0.0500035     0.0339616     0.0255613     0.0196402     0.0159585      0.013745
           27      0.168411     0.0793026     0.0500023     0.0339613     0.0255607     0.0196399     0.0159583     0.0137449
           28      0.168422     0.0793004     0.0500017     0.0339605     0.0255603     0.0196396      0.015958     0.0137447
           29      0.168402     0.0793005     0.0500008     0.0339601     0.0255601     0.0196394     0.0159579     0.0137445
           30      0.168401     0.0792941     0.0499973     0.0339591     0.0255598     0.0196393     0.0159577     0.0137444
           31      0.168399     0.0792928     0.0499964     0.0339578     0.0255587     0.0196387     0.0159575     0.0137443
           32      0.168397     0.0792977     0.0499966      0.033957     0.0255581     0.0196382      0.015957     0.0137439
           33      0.168405     0.0792917     0.0499975     0.0339576     0.0255582     0.0196381     0.0159568     0.0137437
           34      0.168401      0.079291     0.0499973     0.0339573     0.0255584     0.0196382     0.0159569     0.0137437
           35      0.168401     0.0792927     0.0499969     0.0339575     0.0255584     0.0196381     0.0159569     0.0137437
           36      0.168399     0.0792943     0.0499958      0.033957     0.0255583     0.0196382     0.0159569     0.0137437
           37      0.168405     0.0792953     0.0499959     0.0339576     0.0255581     0.0196379     0.0159568     0.0137437
           38      0.168405     0.0792931     0.0499967     0.0339574     0.0255581      0.019638     0.0159568     0.0137436
           39      0.168403     0.0792938     0.0499967     0.0339574     0.0255582     0.0196381     0.0159568     0.0137436
           40      0.168405      0.079291     0.0499972     0.0339576     0.0255582     0.0196381     0.0159568     0.0137436
           41        0.1684     0.0792921     0.0499969     0.0339574     0.0255584     0.0196382     0.0159569     0.0137437
           42      0.168398     0.0792956      0.049995      0.033957     0.0255582     0.0196381     0.0159569     0.0137437
           43      0.168398     0.0792922     0.0499969     0.0339574      0.025558     0.0196379     0.0159568     0.0137436
           44      0.168404      0.079295     0.0499956     0.0339576     0.0255583      0.019638     0.0159567     0.0137435
           45      0.168403     0.0792965     0.0499959      0.033957     0.0255579     0.0196381     0.0159568     0.0137436
           46      0.168401     0.0792928     0.0499965     0.0339577      0.025558     0.0196379     0.0159567     0.0137436
           47      0.168401     0.0792928     0.0499964     0.0339576     0.0255583     0.0196381     0.0159568     0.0137435
           48      0.168402     0.0792923     0.0499962     0.0339574     0.0255582     0.0196382     0.0159569     0.0137436
           49      0.168409     0.0792939      0.049996      0.033957      0.025558      0.019638     0.0159568     0.0137436
           50      0.168398     0.0792914     0.0499969     0.0339574     0.0255582     0.0196379     0.0159567     0.0137435
           51      0.168402     0.0792934     0.0499964     0.0339569     0.0255581     0.0196381     0.0159568     0.0137435
           52      0.168406     0.0792919     0.0499965     0.0339576     0.0255581     0.0196379     0.0159567     0.0137436
           53        0.1684     0.0792945     0.0499959     0.0339571     0.0255581      0.019638     0.0159568     0.0137436
           54      0.168401     0.0792912      0.049997     0.0339574      0.025558      0.019638     0.0159567     0.0137436
           55      0.168406     0.0792917     0.0499969     0.0339568     0.0255582     0.0196381     0.0159567     0.0137435
           56      0.168398     0.0792939     0.0499955     0.0339577     0.0255583      0.019638     0.0159568     0.0137436
           57      0.168395     0.0792953     0.0499957     0.0339567     0.0255578      0.019638     0.0159568     0.0137436
           58      0.168404     0.0792922     0.0499978     0.0339574     0.0255578     0.0196377     0.0159566     0.0137435
           59        0.1684     0.0792953     0.0499953     0.0339575     0.0255586     0.0196382     0.0159567     0.0137434
           60      0.168399     0.0792927     0.0499968     0.0339575     0.0255579      0.019638     0.0159569     0.0137437
           61      0.168403     0.0792926     0.0499971     0.0339572     0.0255582     0.0196381     0.0159567     0.0137435
           62      0.168396     0.0792944     0.0499951      0.033957     0.0255583     0.0196381     0.0159568     0.0137436
           63      0.168395     0.0792954      0.049996     0.0339567     0.0255576     0.0196378     0.0159568     0.0137436
           64        0.1684     0.0792948     0.0499965     0.0339571      0.025558     0.0196378     0.0159565     0.0137434
           65      0.168404     0.0792927     0.0499966     0.0339579     0.0255582     0.0196379     0.0159567     0.0137435
           66      0.168395      0.079293     0.0499958     0.0339575     0.0255583     0.0196382     0.0159568     0.0137436
           67      0.168397     0.0792916     0.0499968     0.0339568     0.0255578     0.0196381     0.0159569     0.0137437
           68      0.168397     0.0792917     0.0499967     0.0339574     0.0255581     0.0196379     0.0159566     0.0137435
           69      0.168402     0.0792925      0.049997     0.0339567      0.025558      0.019638     0.0159567     0.0137436
           70      0.168396     0.0792958     0.0499956     0.0339568      0.025558     0.0196379     0.0159566     0.0137435
           71        0.1684     0.0792923     0.0499974     0.0339571     0.0255578     0.0196378     0.0159566     0.0137435
           72      0.168402     0.0792943     0.0499961     0.0339577     0.0255585      0.019638     0.0159566     0.0137434
           73      0.168407     0.0792949     0.0499958     0.0339575     0.0255582     0.0196382     0.0159569     0.0137436
           74      0.168396     0.0792905     0.0499973     0.0339575      0.025558      0.019638     0.0159568     0.0137436
           75      0.168401     0.0792951     0.0499963     0.0339567     0.0255581     0.0196381     0.0159567     0.0137436
           76      0.168397     0.0792932     0.0499964     0.0339578     0.0255581     0.0196379     0.0159567     0.0137436
           77        0.1684      0.079292     0.0499969      0.033957     0.0255581     0.0196382     0.0159568     0.0137435
           78      0.168398     0.0792942     0.0499959     0.0339575     0.0255583     0.0196379     0.0159567     0.0137436
           79      0.168403     0.0792913     0.0499968     0.0339575     0.0255581      0.019638     0.0159568     0.0137436
           80      0.168394     0.0792937     0.0499955     0.0339567     0.0255582     0.0196381     0.0159567     0.0137436
           81      0.168397     0.0792924     0.0499971     0.0339571     0.0255578     0.0196378     0.0159567     0.0137436
           82      0.168406     0.0792932     0.0499968     0.0339573     0.0255583      0.019638     0.0159566     0.0137434
           83        0.1684     0.0792924     0.0499963     0.0339575     0.0255582     0.0196381     0.0159568     0.0137436
           84        0.1684     0.0792927     0.0499962     0.0339571      0.025558     0.0196381     0.0159568     0.0137436
           85      0.168399     0.0792939      0.049996     0.0339572     0.0255581      0.019638     0.0159567     0.0137436
           86      0.168399     0.0792921      0.049997     0.0339574      0.025558      0.019638     0.0159567     0.0137436
           87      0.168399     0.0792948     0.0499961     0.0339572     0.0255584     0.0196381     0.0159567     0.0137435
           88      0.168401     0.0792936     0.0499961      0.033957     0.0255581     0.0196381     0.0159568     0.0137436
           89      0.168401     0.0792918     0.0499965     0.0339576      0.025558     0.0196379     0.0159567     0.0137436
           90      0.168393     0.0792918     0.0499965     0.0339574     0.0255582     0.0196381     0.0159568     0.0137435
           91      0.168398     0.0792946     0.0499963     0.0339566     0.0255578      0.019638     0.0159568     0.0137436
           92      0.168402     0.0792937     0.0499967     0.0339578      0.025558     0.0196378     0.0159566     0.0137435
           93      0.168397     0.0792936     0.0499959     0.0339574     0.0255584     0.0196382     0.0159568     0.0137435
           94      0.168404     0.0792928     0.0499971     0.0339575     0.0255581      0.019638     0.0159568     0.0137437
           95      0.168396     0.0792953     0.0499963     0.0339571     0.0255583     0.0196381     0.0159568     0.0137436
           96      0.168395     0.0792969     0.0499956     0.0339571     0.0255582     0.0196379     0.0159567     0.0137436
           97      0.168404     0.0792947     0.0499969     0.0339574      0.025558     0.0196379     0.0159567     0.0137435
           98      0.168395     0.0792909     0.0499967     0.0339574     0.0255584     0.0196381     0.0159567     0.0137435
           99      0.168393     0.0792936     0.0499963     0.0339571     0.0255579     0.0196381     0.0159569     0.0137437
          100      0.168398     0.0792966     0.0499958     0.0339573      0.025558     0.0196379     0.0159567     0.0137436
          101        0.1684     0.0792955     0.0499964     0.0339576     0.0255581      0.019638     0.0159567     0.0137435
          102        0.1684     0.0792922     0.0499968     0.0339574     0.0255583     0.0196381     0.0159568     0.0137436
          103      0.168401     0.0792921     0.0499959     0.0339575     0.0255581     0.0196381     0.0159568     0.0137436
          104      0.168397     0.0792922     0.0499966      0.033957     0.0255579     0.0196381     0.0159568     0.0137436
          105      0.168393     0.0792955     0.0499956     0.0339576     0.0255582     0.0196379     0.0159567     0.0137436
          106      0.168401      0.079292     0.0499973     0.0339567     0.0255577      0.019638     0.0159568     0.0137436
          107      0.168401     0.0792947     0.0499962     0.0339575     0.0255584     0.0196379     0.0159566     0.0137435
          108      0.168407      0.079294     0.0499954     0.0339573     0.0255582     0.0196381     0.0159568     0.0137436
          109      0.168402     0.0792953     0.0499969     0.0339573      0.025558     0.0196379     0.0159568     0.0137436
          110      0.168396      0.079294     0.0499956     0.0339577     0.0255583     0.0196381     0.0159567     0.0137436
          111      0.168405     0.0792929     0.0499964      0.033957     0.0255581     0.0196381     0.0159568     0.0137436
          112      0.168402      0.079293     0.0499961     0.0339574     0.0255581     0.0196379     0.0159567     0.0137436
          113      0.168397     0.0792938     0.0499961     0.0339571      0.025558      0.019638     0.0159567     0.0137435
          114        0.1684     0.0792935     0.0499966     0.0339574      0.025558     0.0196379     0.0159567     0.0137435
          115      0.168399      0.079293     0.0499958     0.0339577     0.0255584     0.0196381     0.0159568     0.0137436
          116      0.168399     0.0792938     0.0499965     0.0339567      0.025558      0.019638     0.0159568     0.0137437
          117      0.168398     0.0792948     0.0499959     0.0339572     0.0255582     0.0196379     0.0159567     0.0137435
          118        0.1684     0.0792945     0.0499963     0.0339572     0.0255581      0.019638     0.0159568     0.0137436
          119      0.168399      0.079292     0.0499971     0.0339572      0.025558      0.019638     0.0159567     0.0137436
          120      0.168399     0.0792916     0.0499973     0.0339573     0.0255582      0.019638     0.0159567     0.0137435
          121      0.168402     0.0792948      0.049996     0.0339576     0.0255582      0.019638     0.0159568     0.0137436
          122      0.168397     0.0792947     0.0499953     0.0339571     0.0255581     0.0196381     0.0159568     0.0137436
          123      0.168399     0.0792944     0.0499968     0.0339573     0.0255579     0.0196378     0.0159567     0.0137436
          124      0.168399     0.0792911     0.0499963     0.0339579     0.0255584     0.0196381     0.0159567     0.0137435
          125      0.168402     0.0792952     0.0499962     0.0339565     0.0255579     0.0196381     0.0159569     0.0137436
          126      0.168398     0.0792913     0.0499967     0.0339576      0.025558     0.0196378     0.0159566     0.0137436
          127      0.168399     0.0792959     0.0499965     0.0339568     0.0255581     0.0196381     0.0159568     0.0137435
          128      0.168404      0.079294     0.0499962     0.0339573     0.0255583     0.0196379     0.0159567     0.0137436
          129      0.168402     0.0792946     0.0499963     0.0339571     0.0255581     0.0196381     0.0159568     0.0137436
          130      0.168402     0.0792936     0.0499967     0.0339574     0.0255581      0.019638     0.0159567     0.0137436
          131      0.168401     0.0792931     0.0499961     0.0339577     0.0255583     0.0196381     0.0159567     0.0137436
          132        0.1684      0.079293     0.0499961     0.0339572     0.0255581     0.0196382     0.0159568     0.0137436
          133      0.168398     0.0792926      0.049996     0.0339572     0.0255579     0.0196379     0.0159567     0.0137436
          134      0.168398     0.0792944     0.0499962     0.0339568     0.0255578     0.0196379     0.0159567     0.0137435
          135      0.168405     0.0792945     0.0499963     0.0339575     0.0255579     0.0196378     0.0159566     0.0137435
          136      0.168402     0.0792915     0.0499966     0.0339577     0.0255583     0.0196381     0.0159567     0.0137435
          137      0.168396     0.0792943     0.0499955     0.0339573     0.0255583     0.0196382     0.0159569     0.0137437
          138      0.168398     0.0792934     0.0499966     0.0339574     0.0255578     0.0196379     0.0159568     0.0137436
          139      0.168404     0.0792938      0.049996      0.033957     0.0255582     0.0196381     0.0159567     0.0137435
          140      0.168399     0.0792925      0.049997     0.0339571      0.025558     0.0196379     0.0159567     0.0137436
          141      0.168401     0.0792924     0.0499962     0.0339577     0.0255583      0.019638     0.0159567     0.0137435
          142      0.168408     0.0792929     0.0499963     0.0339571     0.0255581     0.0196382     0.0159568     0.0137436
          143      0.168401     0.0792916     0.0499967     0.0339574     0.0255583      0.019638     0.0159567     0.0137436
          144      0.168399     0.0792931     0.0499961     0.0339572     0.0255582      0.019638     0.0159568     0.0137436
          145      0.168398     0.0792921     0.0499962     0.0339574     0.0255581      0.019638     0.0159567     0.0137436
          146      0.168401     0.0792923     0.0499971     0.0339567      0.025558      0.019638     0.0159567     0.0137436
          147        0.1684     0.0792918     0.0499968     0.0339574     0.0255583     0.0196379     0.0159566     0.0137435
          148      0.168405     0.0792914     0.0499967     0.0339574     0.0255582      0.019638     0.0159568     0.0137436
          149      0.168398     0.0792913     0.0499961     0.0339575     0.0255582     0.0196381     0.0159568     0.0137436
          150      0.168401     0.0792918     0.0499972     0.0339569     0.0255579      0.019638     0.0159568     0.0137436
          151      0.168405     0.0792927      0.049996     0.0339573     0.0255583     0.0196379     0.0159567     0.0137435
          152      0.168405     0.0792934     0.0499966     0.0339574     0.0255579      0.019638     0.0159568     0.0137436
          153      0.168403     0.0792929     0.0499958     0.0339578     0.0255583     0.0196381     0.0159567     0.0137435
          154      0.168406     0.0792924     0.0499963     0.0339572      0.025558     0.0196381     0.0159568     0.0137436
          155      0.168399     0.0792916     0.0499966     0.0339571     0.0255581      0.019638     0.0159567     0.0137436
          156      0.168405     0.0792946     0.0499962     0.0339568     0.0255579     0.0196379     0.0159567     0.0137436
          157      0.168402     0.0792905     0.0499974     0.0339577     0.0255582     0.0196379     0.0159566     0.0137435
          158      0.168402     0.0792918     0.0499962     0.0339571     0.0255584     0.0196383     0.0159568     0.0137436
          159      0.168403     0.0792921     0.0499968     0.0339572     0.0255581      0.019638     0.0159568     0.0137437
          160      0.168405     0.0792929     0.0499958     0.0339572     0.0255582      0.019638     0.0159567     0.0137436
          161        0.1684     0.0792925     0.0499963     0.0339576     0.0255582      0.019638     0.0159567     0.0137436
          162        0.1684      0.079293     0.0499962     0.0339571     0.0255581     0.0196381     0.0159568     0.0137436
          163      0.168399     0.0792934     0.0499963     0.0339573     0.0255582      0.019638     0.0159567     0.0137436
          164      0.168399      0.079293     0.0499962     0.0339573     0.0255581      0.019638     0.0159568     0.0137436
          165      0.168403     0.0792923     0.0499967     0.0339571     0.0255581      0.019638     0.0159567     0.0137436
          166      0.168405     0.0792924     0.0499965     0.0339573     0.0255582      0.019638     0.0159568     0.0137436
          167      0.168401      0.079294     0.0499957     0.0339577     0.0255582      0.019638     0.0159568     0.0137436
          168      0.168402     0.0792958     0.0499956     0.0339576      0.025558      0.019638     0.0159568     0.0137436
          169      0.168405     0.0792956     0.0499954     0.0339572      0.025558     0.0196381     0.0159567     0.0137436
          170        0.1684     0.0792936     0.0499964     0.0339577      0.025558     0.0196379     0.0159567     0.0137436
          171      0.168399      0.079294     0.0499954     0.0339574     0.0255582     0.0196381     0.0159568     0.0137435
          172      0.168403     0.0792921     0.0499973      0.033957     0.0255579      0.019638     0.0159568     0.0137436
          173      0.168401     0.0792927     0.0499966     0.0339573     0.0255583      0.019638     0.0159567     0.0137435
          174      0.168397     0.0792909     0.0499967     0.0339573     0.0255581      0.019638     0.0159568     0.0137436
          175      0.168405     0.0792948     0.0499963     0.0339564     0.0255579      0.019638     0.0159567     0.0137436
          176      0.168401     0.0792936     0.0499953     0.0339579     0.0255582     0.0196378     0.0159566     0.0137435
          177      0.168401      0.079293     0.0499966     0.0339573     0.0255579     0.0196381     0.0159568     0.0137435
          178      0.168403     0.0792919     0.0499966     0.0339573     0.0255581      0.019638     0.0159567     0.0137436
          179      0.168396     0.0792948      0.049996     0.0339574     0.0255582      0.019638     0.0159567     0.0137436
          180        0.1684     0.0792927      0.049997     0.0339569      0.025558     0.0196381     0.0159568     0.0137436
          181      0.168403     0.0792935     0.0499962      0.033957     0.0255582      0.019638     0.0159567     0.0137436
          182      0.168392     0.0792934      0.049996     0.0339577     0.0255581      0.019638     0.0159567     0.0137436
          183      0.168399     0.0792964     0.0499957     0.0339569      0.025558     0.0196381     0.0159568     0.0137436
          184      0.168404     0.0792927      0.049997     0.0339574      0.025558     0.0196379     0.0159567     0.0137436
          185        0.1684     0.0792912     0.0499966     0.0339576     0.0255583     0.0196381     0.0159567     0.0137435
          186      0.168403     0.0792924     0.0499964     0.0339569     0.0255581     0.0196382     0.0159569     0.0137436
          187      0.168402     0.0792962     0.0499956     0.0339573     0.0255581     0.0196379     0.0159567     0.0137436
          188      0.168402     0.0792923     0.0499963     0.0339574      0.025558      0.019638     0.0159567     0.0137436
          189      0.168405     0.0792951     0.0499951     0.0339577     0.0255581      0.019638     0.0159567     0.0137435
          190      0.168401     0.0792942     0.0499957     0.0339571     0.0255578     0.0196381     0.0159568     0.0137436
          191      0.168401     0.0792939     0.0499964     0.0339575      0.025558     0.0196379     0.0159566     0.0137435
          192      0.168391      0.079294     0.0499965     0.0339576     0.0255581      0.019638     0.0159567     0.0137435
          193        0.1684     0.0792944     0.0499966     0.0339569      0.025558     0.0196381     0.0159568     0.0137436
          194      0.168399     0.0792936     0.0499958     0.0339578     0.0255582     0.0196379     0.0159567     0.0137436
          195      0.168401      0.079292      0.049997     0.0339573     0.0255581     0.0196381     0.0159568     0.0137436
          196      0.168405     0.0792926     0.0499961     0.0339574     0.0255584     0.0196381     0.0159568     0.0137436
          197      0.168402     0.0792941     0.0499956     0.0339568      0.025558      0.019638     0.0159568     0.0137436
          198      0.168398     0.0792958     0.0499955     0.0339574     0.0255579     0.0196378     0.0159566     0.0137435
          199      0.168398     0.0792934      0.049996      0.033958      0.025558     0.0196379     0.0159567     0.0137435
          200      0.168403     0.0792934     0.0499963     0.0339573     0.0255581     0.0196382     0.0159568     0.0137436
          201        0.1684     0.0792918     0.0499961     0.0339575     0.0255584      0.019638     0.0159567     0.0137436
          202      0.168402     0.0792945     0.0499955     0.0339573     0.0255581      0.019638     0.0159568     0.0137436
          203      0.168399     0.0792925     0.0499963     0.0339573      0.025558     0.0196379     0.0159567     0.0137435
          204        0.1684      0.079293      0.049996     0.0339577     0.0255581      0.019638     0.0159567     0.0137435
          205        0.1684     0.0792918     0.0499965     0.0339573     0.0255581     0.0196381     0.0159568     0.0137436
          206      0.168405     0.0792925     0.0499965     0.0339573      0.025558      0.019638     0.0159567     0.0137436
          207      0.168404     0.0792922     0.0499966      0.033957     0.0255582     0.0196381     0.0159567     0.0137435
          208      0.168398     0.0792937     0.0499957      0.033957     0.0255582      0.019638     0.0159567     0.0137436
          209      0.168398     0.0792932     0.0499965     0.0339574     0.0255579     0.0196378     0.0159567     0.0137435
          210      0.168402     0.0792932     0.0499966     0.0339571      0.025558      0.019638     0.0159567     0.0137435
          211      0.168396     0.0792943     0.0499954     0.0339574     0.0255583      0.019638     0.0159567     0.0137435
          212      0.168396     0.0792951      0.049996     0.0339566     0.0255577      0.019638     0.0159568     0.0137436
          213      0.168398     0.0792953     0.0499965     0.0339569     0.0255578     0.0196377     0.0159565     0.0137435
          214      0.168401     0.0792936      0.049997     0.0339579     0.0255583     0.0196379     0.0159566     0.0137434
          215      0.168406     0.0792939     0.0499958     0.0339575     0.0255586     0.0196383     0.0159569     0.0137436
          216      0.168396     0.0792927      0.049996     0.0339573     0.0255579     0.0196381     0.0159569     0.0137437
          217      0.168404     0.0792949     0.0499962      0.033957     0.0255578     0.0196379     0.0159566     0.0137435
          218      0.168405     0.0792926     0.0499965     0.0339573     0.0255582      0.019638     0.0159567     0.0137435
          219      0.168401     0.0792945     0.0499958     0.0339574     0.0255581      0.019638     0.0159568     0.0137436
          220      0.168401     0.0792946     0.0499956     0.0339573     0.0255581      0.019638     0.0159567     0.0137436
          221      0.168399      0.079294     0.0499961     0.0339574      0.025558     0.0196379     0.0159567     0.0137435
          222        0.1684     0.0792908      0.049997     0.0339573     0.0255582      0.019638     0.0159567     0.0137436
          223      0.168407     0.0792929     0.0499955     0.0339574     0.0255583     0.0196382     0.0159568     0.0137436
          224      0.168402     0.0792917     0.0499966      0.033957     0.0255579      0.019638     0.0159568     0.0137436
          225      0.168402     0.0792933     0.0499965     0.0339571     0.0255581     0.0196379     0.0159567     0.0137435
