/*--------------------------------*- C++ -*----------------------------------*\
| =========                 |                                                 |
| \\      /  F ield         | OpenFOAM: The Open Source CFD Toolbox           |
|  \\    /   O peration     | Version:  5.x                                   |
|   \\  /    A nd           | Web:      www.OpenFOAM.org                      |
|    \\/     M anipulation  |                                                 |
\*---------------------------------------------------------------------------*/
FoamFile
{
    version     2.0;
    format      ascii;
    class       volScalarField;
    location    "0";
    object      alphat;
}
// * * * * * * * * * * * * * * * * * * * * * * * * * * * * * * * * * * * * * //

dimensions      [1 -1 -1 0 0 0 0];

internalField   nonuniform List<scalar> 
124250
(
0.0811835
0.0811373
0.0808619
0.0805884
0.0803791
0.0802288
0.0801191
0.0800357
0.0799694
0.0799149
0.0798689
0.0798296
0.0797955
0.0797656
0.0797392
0.0797158
0.0796948
0.079676
0.0796589
0.0796435
0.0796294
0.0796166
0.0796048
0.079594
0.079584
0.0795748
0.0795664
0.0795585
0.0795512
0.0795444
0.0795381
0.0795323
0.0795268
0.0795217
0.079517
0.0795125
0.0795084
0.0795045
0.0795008
0.0794974
0.0794942
0.0794912
0.0794883
0.0794856
0.0794831
0.0794807
0.0794785
0.0794764
0.0794744
0.0794724
0.0794706
0.0794689
0.0794673
0.0794657
0.0794643
0.0794629
0.0794615
0.0794602
0.079459
0.0794578
0.0794567
0.0794556
0.0794546
0.0794536
0.0794526
0.0794517
0.0794509
0.07945
0.0794492
0.0794484
0.0794477
0.079447
0.0794463
0.0794456
0.079445
0.0794444
0.0794438
0.0794433
0.0794427
0.0794422
0.0794417
0.0794412
0.0794408
0.0794403
0.0794399
0.0794395
0.0794391
0.0794388
0.0794384
0.0794381
0.0794378
0.0794375
0.0794372
0.0794369
0.0794366
0.0794364
0.0794362
0.0794359
0.0794357
0.0794355
0.0794354
0.0794352
0.079435
0.0794349
0.0794347
0.0811835
0.0811373
0.0808619
0.0805884
0.0803791
0.0802288
0.0801191
0.0800356
0.0799694
0.0799148
0.0798688
0.0798295
0.0797955
0.0797656
0.0797392
0.0797158
0.0796948
0.079676
0.0796589
0.0796435
0.0796294
0.0796166
0.0796048
0.079594
0.079584
0.0795749
0.0795664
0.0795585
0.0795512
0.0795445
0.0795382
0.0795323
0.0795269
0.0795218
0.079517
0.0795126
0.0795084
0.0795045
0.0795009
0.0794974
0.0794942
0.0794912
0.0794884
0.0794857
0.0794832
0.0794808
0.0794785
0.0794764
0.0794744
0.0794725
0.0794707
0.079469
0.0794673
0.0794658
0.0794643
0.0794629
0.0794615
0.0794603
0.079459
0.0794579
0.0794567
0.0794556
0.0794546
0.0794536
0.0794527
0.0794518
0.0794509
0.07945
0.0794492
0.0794485
0.0794477
0.079447
0.0794463
0.0794457
0.079445
0.0794444
0.0794438
0.0794433
0.0794427
0.0794422
0.0794417
0.0794412
0.0794408
0.0794403
0.0794399
0.0794395
0.0794391
0.0794388
0.0794384
0.0794381
0.0794378
0.0794375
0.0794372
0.0794369
0.0794366
0.0794364
0.0794362
0.0794359
0.0794357
0.0794355
0.0794353
0.0794352
0.079435
0.0794349
0.0794347
0.0811835
0.0811373
0.0808619
0.0805883
0.0803791
0.0802288
0.0801191
0.0800356
0.0799694
0.0799148
0.0798688
0.0798295
0.0797954
0.0797656
0.0797392
0.0797158
0.0796948
0.079676
0.0796589
0.0796435
0.0796294
0.0796165
0.0796048
0.079594
0.079584
0.0795749
0.0795664
0.0795585
0.0795512
0.0795445
0.0795382
0.0795323
0.0795268
0.0795218
0.079517
0.0795126
0.0795084
0.0795045
0.0795009
0.0794974
0.0794942
0.0794912
0.0794884
0.0794857
0.0794832
0.0794808
0.0794785
0.0794764
0.0794744
0.0794725
0.0794707
0.079469
0.0794673
0.0794658
0.0794643
0.0794629
0.0794616
0.0794603
0.079459
0.0794579
0.0794567
0.0794557
0.0794546
0.0794536
0.0794527
0.0794518
0.0794509
0.0794501
0.0794492
0.0794485
0.0794477
0.079447
0.0794463
0.0794457
0.079445
0.0794444
0.0794438
0.0794433
0.0794427
0.0794422
0.0794417
0.0794412
0.0794408
0.0794404
0.0794399
0.0794395
0.0794391
0.0794388
0.0794384
0.0794381
0.0794378
0.0794375
0.0794372
0.0794369
0.0794366
0.0794364
0.0794362
0.0794359
0.0794357
0.0794355
0.0794353
0.0794352
0.079435
0.0794349
0.0794347
0.0811835
0.0811373
0.0808619
0.0805883
0.0803791
0.0802288
0.0801191
0.0800356
0.0799693
0.0799148
0.0798688
0.0798295
0.0797954
0.0797656
0.0797392
0.0797158
0.0796948
0.0796759
0.0796589
0.0796435
0.0796294
0.0796165
0.0796048
0.079594
0.079584
0.0795749
0.0795664
0.0795585
0.0795512
0.0795445
0.0795382
0.0795323
0.0795268
0.0795218
0.079517
0.0795126
0.0795084
0.0795045
0.0795009
0.0794974
0.0794942
0.0794912
0.0794884
0.0794857
0.0794832
0.0794808
0.0794785
0.0794764
0.0794744
0.0794725
0.0794707
0.079469
0.0794673
0.0794658
0.0794643
0.0794629
0.0794616
0.0794603
0.079459
0.0794579
0.0794567
0.0794557
0.0794546
0.0794536
0.0794527
0.0794518
0.0794509
0.0794501
0.0794492
0.0794485
0.0794477
0.079447
0.0794463
0.0794457
0.079445
0.0794444
0.0794438
0.0794433
0.0794427
0.0794422
0.0794417
0.0794412
0.0794408
0.0794404
0.0794399
0.0794395
0.0794391
0.0794388
0.0794384
0.0794381
0.0794378
0.0794375
0.0794372
0.0794369
0.0794366
0.0794364
0.0794362
0.0794359
0.0794357
0.0794355
0.0794353
0.0794352
0.079435
0.0794349
0.0794347
0.0811835
0.0811373
0.0808619
0.0805883
0.0803791
0.0802288
0.0801191
0.0800356
0.0799693
0.0799148
0.0798688
0.0798295
0.0797954
0.0797656
0.0797392
0.0797157
0.0796948
0.0796759
0.0796589
0.0796435
0.0796294
0.0796165
0.0796048
0.079594
0.079584
0.0795748
0.0795664
0.0795585
0.0795512
0.0795445
0.0795382
0.0795323
0.0795268
0.0795218
0.079517
0.0795126
0.0795084
0.0795045
0.0795009
0.0794974
0.0794942
0.0794912
0.0794884
0.0794857
0.0794832
0.0794808
0.0794785
0.0794764
0.0794744
0.0794725
0.0794707
0.079469
0.0794673
0.0794658
0.0794643
0.0794629
0.0794615
0.0794603
0.079459
0.0794579
0.0794567
0.0794557
0.0794546
0.0794536
0.0794527
0.0794518
0.0794509
0.07945
0.0794492
0.0794485
0.0794477
0.079447
0.0794463
0.0794457
0.079445
0.0794444
0.0794438
0.0794433
0.0794427
0.0794422
0.0794417
0.0794412
0.0794408
0.0794403
0.0794399
0.0794395
0.0794391
0.0794388
0.0794384
0.0794381
0.0794378
0.0794375
0.0794372
0.0794369
0.0794366
0.0794364
0.0794362
0.0794359
0.0794357
0.0794355
0.0794353
0.0794352
0.079435
0.0794349
0.0794347
0.0811835
0.0811373
0.0808619
0.0805883
0.0803791
0.0802288
0.0801191
0.0800356
0.0799693
0.0799148
0.0798688
0.0798295
0.0797954
0.0797656
0.0797392
0.0797157
0.0796948
0.0796759
0.0796589
0.0796435
0.0796294
0.0796165
0.0796048
0.079594
0.079584
0.0795748
0.0795664
0.0795585
0.0795512
0.0795444
0.0795382
0.0795323
0.0795268
0.0795217
0.079517
0.0795125
0.0795084
0.0795045
0.0795008
0.0794974
0.0794942
0.0794912
0.0794884
0.0794857
0.0794832
0.0794808
0.0794785
0.0794764
0.0794744
0.0794725
0.0794707
0.079469
0.0794673
0.0794658
0.0794643
0.0794629
0.0794615
0.0794603
0.079459
0.0794579
0.0794567
0.0794556
0.0794546
0.0794536
0.0794527
0.0794518
0.0794509
0.07945
0.0794492
0.0794485
0.0794477
0.079447
0.0794463
0.0794457
0.079445
0.0794444
0.0794438
0.0794433
0.0794427
0.0794422
0.0794417
0.0794412
0.0794408
0.0794403
0.0794399
0.0794395
0.0794391
0.0794388
0.0794384
0.0794381
0.0794378
0.0794375
0.0794372
0.0794369
0.0794366
0.0794364
0.0794362
0.0794359
0.0794357
0.0794355
0.0794353
0.0794352
0.079435
0.0794349
0.0794347
0.0811835
0.0811373
0.0808619
0.0805883
0.0803791
0.0802288
0.0801191
0.0800356
0.0799693
0.0799148
0.0798688
0.0798295
0.0797954
0.0797656
0.0797392
0.0797157
0.0796948
0.0796759
0.0796589
0.0796434
0.0796294
0.0796165
0.0796048
0.079594
0.079584
0.0795748
0.0795663
0.0795585
0.0795512
0.0795444
0.0795381
0.0795323
0.0795268
0.0795217
0.079517
0.0795125
0.0795084
0.0795045
0.0795008
0.0794974
0.0794942
0.0794912
0.0794883
0.0794857
0.0794831
0.0794808
0.0794785
0.0794764
0.0794744
0.0794725
0.0794707
0.079469
0.0794673
0.0794658
0.0794643
0.0794629
0.0794615
0.0794602
0.079459
0.0794578
0.0794567
0.0794556
0.0794546
0.0794536
0.0794527
0.0794518
0.0794509
0.07945
0.0794492
0.0794485
0.0794477
0.079447
0.0794463
0.0794457
0.079445
0.0794444
0.0794438
0.0794433
0.0794427
0.0794422
0.0794417
0.0794412
0.0794408
0.0794403
0.0794399
0.0794395
0.0794391
0.0794388
0.0794384
0.0794381
0.0794378
0.0794375
0.0794372
0.0794369
0.0794366
0.0794364
0.0794362
0.0794359
0.0794357
0.0794355
0.0794353
0.0794352
0.079435
0.0794349
0.0794347
0.0811835
0.0811373
0.0808619
0.0805883
0.0803791
0.0802288
0.0801191
0.0800356
0.0799693
0.0799148
0.0798688
0.0798295
0.0797954
0.0797656
0.0797392
0.0797157
0.0796948
0.0796759
0.0796589
0.0796434
0.0796294
0.0796165
0.0796048
0.0795939
0.079584
0.0795748
0.0795663
0.0795585
0.0795512
0.0795444
0.0795381
0.0795323
0.0795268
0.0795217
0.079517
0.0795125
0.0795084
0.0795045
0.0795008
0.0794974
0.0794942
0.0794912
0.0794883
0.0794857
0.0794831
0.0794808
0.0794785
0.0794764
0.0794744
0.0794725
0.0794707
0.0794689
0.0794673
0.0794658
0.0794643
0.0794629
0.0794615
0.0794602
0.079459
0.0794578
0.0794567
0.0794556
0.0794546
0.0794536
0.0794527
0.0794517
0.0794509
0.07945
0.0794492
0.0794484
0.0794477
0.079447
0.0794463
0.0794456
0.079445
0.0794444
0.0794438
0.0794433
0.0794427
0.0794422
0.0794417
0.0794412
0.0794408
0.0794403
0.0794399
0.0794395
0.0794391
0.0794388
0.0794384
0.0794381
0.0794378
0.0794375
0.0794372
0.0794369
0.0794366
0.0794364
0.0794362
0.0794359
0.0794357
0.0794355
0.0794353
0.0794352
0.079435
0.0794349
0.0794347
0.0811835
0.0811373
0.0808619
0.0805883
0.080379
0.0802288
0.0801191
0.0800356
0.0799693
0.0799148
0.0798688
0.0798295
0.0797954
0.0797656
0.0797392
0.0797157
0.0796948
0.0796759
0.0796589
0.0796434
0.0796294
0.0796165
0.0796047
0.0795939
0.079584
0.0795748
0.0795663
0.0795585
0.0795512
0.0795444
0.0795381
0.0795323
0.0795268
0.0795217
0.079517
0.0795125
0.0795084
0.0795045
0.0795008
0.0794974
0.0794942
0.0794912
0.0794883
0.0794856
0.0794831
0.0794807
0.0794785
0.0794764
0.0794744
0.0794725
0.0794706
0.0794689
0.0794673
0.0794657
0.0794643
0.0794629
0.0794615
0.0794602
0.079459
0.0794578
0.0794567
0.0794556
0.0794546
0.0794536
0.0794526
0.0794517
0.0794509
0.07945
0.0794492
0.0794484
0.0794477
0.079447
0.0794463
0.0794456
0.079445
0.0794444
0.0794438
0.0794433
0.0794427
0.0794422
0.0794417
0.0794412
0.0794408
0.0794403
0.0794399
0.0794395
0.0794391
0.0794388
0.0794384
0.0794381
0.0794378
0.0794375
0.0794372
0.0794369
0.0794366
0.0794364
0.0794362
0.0794359
0.0794357
0.0794355
0.0794353
0.0794352
0.079435
0.0794349
0.0794347
0.0811835
0.0811373
0.0808619
0.0805883
0.080379
0.0802288
0.0801191
0.0800356
0.0799693
0.0799148
0.0798688
0.0798295
0.0797954
0.0797655
0.0797392
0.0797157
0.0796948
0.0796759
0.0796589
0.0796434
0.0796294
0.0796165
0.0796047
0.0795939
0.079584
0.0795748
0.0795663
0.0795585
0.0795512
0.0795444
0.0795381
0.0795322
0.0795268
0.0795217
0.0795169
0.0795125
0.0795083
0.0795044
0.0795008
0.0794974
0.0794942
0.0794911
0.0794883
0.0794856
0.0794831
0.0794807
0.0794785
0.0794764
0.0794743
0.0794724
0.0794706
0.0794689
0.0794673
0.0794657
0.0794643
0.0794628
0.0794615
0.0794602
0.079459
0.0794578
0.0794567
0.0794556
0.0794546
0.0794536
0.0794526
0.0794517
0.0794509
0.07945
0.0794492
0.0794484
0.0794477
0.079447
0.0794463
0.0794456
0.079445
0.0794444
0.0794438
0.0794432
0.0794427
0.0794422
0.0794417
0.0794412
0.0794408
0.0794403
0.0794399
0.0794395
0.0794391
0.0794388
0.0794384
0.0794381
0.0794378
0.0794375
0.0794372
0.0794369
0.0794366
0.0794364
0.0794362
0.0794359
0.0794357
0.0794355
0.0794353
0.0794352
0.079435
0.0794349
0.0794347
0.0811835
0.0811373
0.0808619
0.0805883
0.080379
0.0802288
0.0801191
0.0800356
0.0799693
0.0799148
0.0798688
0.0798295
0.0797954
0.0797655
0.0797392
0.0797157
0.0796947
0.0796759
0.0796589
0.0796434
0.0796293
0.0796165
0.0796047
0.0795939
0.079584
0.0795748
0.0795663
0.0795584
0.0795512
0.0795444
0.0795381
0.0795322
0.0795268
0.0795217
0.0795169
0.0795125
0.0795083
0.0795044
0.0795008
0.0794974
0.0794941
0.0794911
0.0794883
0.0794856
0.0794831
0.0794807
0.0794785
0.0794763
0.0794743
0.0794724
0.0794706
0.0794689
0.0794673
0.0794657
0.0794642
0.0794628
0.0794615
0.0794602
0.079459
0.0794578
0.0794567
0.0794556
0.0794546
0.0794536
0.0794526
0.0794517
0.0794508
0.07945
0.0794492
0.0794484
0.0794477
0.079447
0.0794463
0.0794456
0.079445
0.0794444
0.0794438
0.0794432
0.0794427
0.0794422
0.0794417
0.0794412
0.0794408
0.0794403
0.0794399
0.0794395
0.0794391
0.0794388
0.0794384
0.0794381
0.0794378
0.0794375
0.0794372
0.0794369
0.0794366
0.0794364
0.0794362
0.0794359
0.0794357
0.0794355
0.0794353
0.0794352
0.079435
0.0794349
0.0794347
0.0811835
0.0811373
0.0808619
0.0805883
0.080379
0.0802288
0.0801191
0.0800356
0.0799693
0.0799148
0.0798688
0.0798295
0.0797954
0.0797655
0.0797392
0.0797157
0.0796947
0.0796759
0.0796589
0.0796434
0.0796293
0.0796165
0.0796047
0.0795939
0.0795839
0.0795748
0.0795663
0.0795584
0.0795511
0.0795444
0.0795381
0.0795322
0.0795267
0.0795217
0.0795169
0.0795125
0.0795083
0.0795044
0.0795008
0.0794973
0.0794941
0.0794911
0.0794883
0.0794856
0.0794831
0.0794807
0.0794784
0.0794763
0.0794743
0.0794724
0.0794706
0.0794689
0.0794672
0.0794657
0.0794642
0.0794628
0.0794615
0.0794602
0.079459
0.0794578
0.0794567
0.0794556
0.0794546
0.0794536
0.0794526
0.0794517
0.0794508
0.07945
0.0794492
0.0794484
0.0794477
0.079447
0.0794463
0.0794456
0.079445
0.0794444
0.0794438
0.0794432
0.0794427
0.0794422
0.0794417
0.0794412
0.0794408
0.0794403
0.0794399
0.0794395
0.0794391
0.0794388
0.0794384
0.0794381
0.0794378
0.0794375
0.0794372
0.0794369
0.0794366
0.0794364
0.0794362
0.0794359
0.0794357
0.0794355
0.0794353
0.0794352
0.079435
0.0794349
0.0794347
0.0811835
0.0811373
0.0808619
0.0805883
0.080379
0.0802288
0.0801191
0.0800356
0.0799693
0.0799148
0.0798688
0.0798295
0.0797954
0.0797655
0.0797391
0.0797157
0.0796947
0.0796759
0.0796588
0.0796434
0.0796293
0.0796165
0.0796047
0.0795939
0.0795839
0.0795747
0.0795663
0.0795584
0.0795511
0.0795443
0.079538
0.0795322
0.0795267
0.0795216
0.0795169
0.0795124
0.0795083
0.0795044
0.0795007
0.0794973
0.0794941
0.0794911
0.0794882
0.0794856
0.079483
0.0794807
0.0794784
0.0794763
0.0794743
0.0794724
0.0794706
0.0794689
0.0794672
0.0794657
0.0794642
0.0794628
0.0794614
0.0794602
0.0794589
0.0794578
0.0794566
0.0794556
0.0794545
0.0794535
0.0794526
0.0794517
0.0794508
0.07945
0.0794492
0.0794484
0.0794477
0.0794469
0.0794463
0.0794456
0.079445
0.0794444
0.0794438
0.0794432
0.0794427
0.0794422
0.0794417
0.0794412
0.0794408
0.0794403
0.0794399
0.0794395
0.0794391
0.0794388
0.0794384
0.0794381
0.0794378
0.0794375
0.0794372
0.0794369
0.0794366
0.0794364
0.0794362
0.0794359
0.0794357
0.0794355
0.0794354
0.0794352
0.079435
0.0794349
0.0794347
0.0811835
0.0811373
0.0808619
0.0805883
0.080379
0.0802288
0.0801191
0.0800356
0.0799693
0.0799148
0.0798688
0.0798294
0.0797954
0.0797655
0.0797391
0.0797157
0.0796947
0.0796759
0.0796588
0.0796434
0.0796293
0.0796164
0.0796047
0.0795939
0.0795839
0.0795747
0.0795662
0.0795584
0.0795511
0.0795443
0.079538
0.0795322
0.0795267
0.0795216
0.0795168
0.0795124
0.0795082
0.0795044
0.0795007
0.0794973
0.0794941
0.079491
0.0794882
0.0794855
0.079483
0.0794806
0.0794784
0.0794763
0.0794743
0.0794724
0.0794705
0.0794688
0.0794672
0.0794657
0.0794642
0.0794628
0.0794614
0.0794601
0.0794589
0.0794577
0.0794566
0.0794556
0.0794545
0.0794535
0.0794526
0.0794517
0.0794508
0.07945
0.0794492
0.0794484
0.0794477
0.0794469
0.0794463
0.0794456
0.079445
0.0794444
0.0794438
0.0794432
0.0794427
0.0794422
0.0794417
0.0794412
0.0794408
0.0794403
0.0794399
0.0794395
0.0794391
0.0794388
0.0794384
0.0794381
0.0794378
0.0794375
0.0794372
0.0794369
0.0794366
0.0794364
0.0794362
0.0794359
0.0794357
0.0794355
0.0794354
0.0794352
0.079435
0.0794349
0.0794347
0.0811835
0.0811373
0.0808619
0.0805883
0.080379
0.0802288
0.0801191
0.0800356
0.0799693
0.0799147
0.0798688
0.0798294
0.0797954
0.0797655
0.0797391
0.0797157
0.0796947
0.0796758
0.0796588
0.0796433
0.0796293
0.0796164
0.0796046
0.0795938
0.0795839
0.0795747
0.0795662
0.0795583
0.0795511
0.0795443
0.079538
0.0795321
0.0795267
0.0795216
0.0795168
0.0795124
0.0795082
0.0795043
0.0795007
0.0794972
0.079494
0.079491
0.0794882
0.0794855
0.079483
0.0794806
0.0794784
0.0794762
0.0794742
0.0794723
0.0794705
0.0794688
0.0794672
0.0794656
0.0794642
0.0794627
0.0794614
0.0794601
0.0794589
0.0794577
0.0794566
0.0794555
0.0794545
0.0794535
0.0794526
0.0794517
0.0794508
0.07945
0.0794492
0.0794484
0.0794476
0.0794469
0.0794462
0.0794456
0.079445
0.0794444
0.0794438
0.0794432
0.0794427
0.0794422
0.0794417
0.0794412
0.0794408
0.0794403
0.0794399
0.0794395
0.0794391
0.0794388
0.0794384
0.0794381
0.0794378
0.0794375
0.0794372
0.0794369
0.0794366
0.0794364
0.0794362
0.0794359
0.0794357
0.0794355
0.0794354
0.0794352
0.079435
0.0794349
0.0794348
0.0811835
0.0811373
0.0808619
0.0805883
0.080379
0.0802288
0.080119
0.0800356
0.0799693
0.0799147
0.0798688
0.0798294
0.0797953
0.0797655
0.0797391
0.0797156
0.0796947
0.0796758
0.0796588
0.0796433
0.0796292
0.0796164
0.0796046
0.0795938
0.0795838
0.0795747
0.0795662
0.0795583
0.079551
0.0795442
0.079538
0.0795321
0.0795266
0.0795215
0.0795168
0.0795123
0.0795082
0.0795043
0.0795006
0.0794972
0.079494
0.079491
0.0794881
0.0794855
0.079483
0.0794806
0.0794783
0.0794762
0.0794742
0.0794723
0.0794705
0.0794688
0.0794672
0.0794656
0.0794641
0.0794627
0.0794614
0.0794601
0.0794589
0.0794577
0.0794566
0.0794555
0.0794545
0.0794535
0.0794526
0.0794516
0.0794508
0.0794499
0.0794491
0.0794484
0.0794476
0.0794469
0.0794462
0.0794456
0.079445
0.0794444
0.0794438
0.0794432
0.0794427
0.0794422
0.0794417
0.0794412
0.0794408
0.0794403
0.0794399
0.0794395
0.0794391
0.0794388
0.0794384
0.0794381
0.0794378
0.0794375
0.0794372
0.0794369
0.0794366
0.0794364
0.0794362
0.079436
0.0794357
0.0794355
0.0794354
0.0794352
0.079435
0.0794349
0.0794348
0.0811835
0.0811373
0.0808619
0.0805883
0.080379
0.0802288
0.080119
0.0800356
0.0799693
0.0799147
0.0798687
0.0798294
0.0797953
0.0797655
0.0797391
0.0797156
0.0796946
0.0796758
0.0796588
0.0796433
0.0796292
0.0796163
0.0796046
0.0795938
0.0795838
0.0795746
0.0795661
0.0795583
0.079551
0.0795442
0.0795379
0.0795321
0.0795266
0.0795215
0.0795167
0.0795123
0.0795081
0.0795042
0.0795006
0.0794972
0.079494
0.0794909
0.0794881
0.0794854
0.0794829
0.0794805
0.0794783
0.0794762
0.0794742
0.0794723
0.0794705
0.0794688
0.0794671
0.0794656
0.0794641
0.0794627
0.0794614
0.0794601
0.0794589
0.0794577
0.0794566
0.0794555
0.0794545
0.0794535
0.0794525
0.0794516
0.0794508
0.0794499
0.0794491
0.0794484
0.0794476
0.0794469
0.0794462
0.0794456
0.0794449
0.0794443
0.0794438
0.0794432
0.0794427
0.0794422
0.0794417
0.0794412
0.0794408
0.0794403
0.0794399
0.0794395
0.0794391
0.0794388
0.0794384
0.0794381
0.0794378
0.0794375
0.0794372
0.0794369
0.0794367
0.0794364
0.0794362
0.079436
0.0794357
0.0794356
0.0794354
0.0794352
0.079435
0.0794349
0.0794348
0.0811835
0.0811373
0.0808619
0.0805883
0.080379
0.0802287
0.080119
0.0800356
0.0799693
0.0799147
0.0798687
0.0798294
0.0797953
0.0797654
0.079739
0.0797156
0.0796946
0.0796758
0.0796587
0.0796433
0.0796292
0.0796163
0.0796045
0.0795937
0.0795838
0.0795746
0.0795661
0.0795582
0.0795509
0.0795442
0.0795379
0.079532
0.0795265
0.0795215
0.0795167
0.0795123
0.0795081
0.0795042
0.0795006
0.0794971
0.0794939
0.0794909
0.0794881
0.0794854
0.0794829
0.0794805
0.0794783
0.0794761
0.0794741
0.0794722
0.0794704
0.0794687
0.0794671
0.0794656
0.0794641
0.0794627
0.0794613
0.0794601
0.0794588
0.0794577
0.0794566
0.0794555
0.0794545
0.0794535
0.0794525
0.0794516
0.0794508
0.0794499
0.0794491
0.0794484
0.0794476
0.0794469
0.0794462
0.0794456
0.0794449
0.0794443
0.0794438
0.0794432
0.0794427
0.0794422
0.0794417
0.0794412
0.0794408
0.0794403
0.0794399
0.0794395
0.0794391
0.0794388
0.0794384
0.0794381
0.0794378
0.0794375
0.0794372
0.0794369
0.0794367
0.0794364
0.0794362
0.079436
0.0794358
0.0794356
0.0794354
0.0794352
0.079435
0.0794349
0.0794348
0.0811835
0.0811373
0.0808619
0.0805883
0.080379
0.0802287
0.080119
0.0800355
0.0799692
0.0799147
0.0798687
0.0798294
0.0797953
0.0797654
0.079739
0.0797155
0.0796946
0.0796757
0.0796587
0.0796432
0.0796291
0.0796163
0.0796045
0.0795937
0.0795837
0.0795745
0.079566
0.0795582
0.0795509
0.0795441
0.0795378
0.079532
0.0795265
0.0795214
0.0795166
0.0795122
0.079508
0.0795042
0.0795005
0.0794971
0.0794939
0.0794909
0.079488
0.0794854
0.0794828
0.0794805
0.0794782
0.0794761
0.0794741
0.0794722
0.0794704
0.0794687
0.0794671
0.0794655
0.079464
0.0794626
0.0794613
0.07946
0.0794588
0.0794576
0.0794565
0.0794555
0.0794544
0.0794535
0.0794525
0.0794516
0.0794507
0.0794499
0.0794491
0.0794483
0.0794476
0.0794469
0.0794462
0.0794456
0.0794449
0.0794443
0.0794438
0.0794432
0.0794427
0.0794422
0.0794417
0.0794412
0.0794408
0.0794403
0.0794399
0.0794395
0.0794391
0.0794388
0.0794384
0.0794381
0.0794378
0.0794375
0.0794372
0.0794369
0.0794367
0.0794364
0.0794362
0.079436
0.0794358
0.0794356
0.0794354
0.0794352
0.0794351
0.0794349
0.0794348
0.0811835
0.0811373
0.0808619
0.0805883
0.080379
0.0802287
0.080119
0.0800355
0.0799692
0.0799147
0.0798687
0.0798293
0.0797952
0.0797654
0.079739
0.0797155
0.0796945
0.0796757
0.0796586
0.0796432
0.0796291
0.0796162
0.0796044
0.0795936
0.0795837
0.0795745
0.079566
0.0795581
0.0795508
0.0795441
0.0795378
0.0795319
0.0795264
0.0795213
0.0795166
0.0795121
0.079508
0.0795041
0.0795005
0.079497
0.0794938
0.0794908
0.079488
0.0794853
0.0794828
0.0794804
0.0794782
0.0794761
0.0794741
0.0794722
0.0794704
0.0794687
0.079467
0.0794655
0.079464
0.0794626
0.0794613
0.07946
0.0794588
0.0794576
0.0794565
0.0794554
0.0794544
0.0794534
0.0794525
0.0794516
0.0794507
0.0794499
0.0794491
0.0794483
0.0794476
0.0794469
0.0794462
0.0794456
0.0794449
0.0794443
0.0794438
0.0794432
0.0794427
0.0794422
0.0794417
0.0794412
0.0794408
0.0794403
0.0794399
0.0794395
0.0794391
0.0794388
0.0794384
0.0794381
0.0794378
0.0794375
0.0794372
0.0794369
0.0794367
0.0794364
0.0794362
0.079436
0.0794358
0.0794356
0.0794354
0.0794352
0.0794351
0.079435
0.0794348
0.0811835
0.0811373
0.0808619
0.0805883
0.080379
0.0802287
0.080119
0.0800355
0.0799692
0.0799146
0.0798686
0.0798293
0.0797952
0.0797653
0.0797389
0.0797155
0.0796945
0.0796756
0.0796586
0.0796431
0.079629
0.0796162
0.0796044
0.0795936
0.0795836
0.0795744
0.0795659
0.0795581
0.0795508
0.079544
0.0795377
0.0795318
0.0795264
0.0795213
0.0795165
0.0795121
0.0795079
0.079504
0.0795004
0.079497
0.0794938
0.0794908
0.0794879
0.0794853
0.0794827
0.0794804
0.0794781
0.079476
0.079474
0.0794721
0.0794703
0.0794686
0.079467
0.0794655
0.079464
0.0794626
0.0794613
0.07946
0.0794588
0.0794576
0.0794565
0.0794554
0.0794544
0.0794534
0.0794525
0.0794516
0.0794507
0.0794499
0.0794491
0.0794483
0.0794476
0.0794469
0.0794462
0.0794456
0.0794449
0.0794443
0.0794438
0.0794432
0.0794427
0.0794422
0.0794417
0.0794412
0.0794408
0.0794403
0.0794399
0.0794395
0.0794392
0.0794388
0.0794385
0.0794381
0.0794378
0.0794375
0.0794372
0.079437
0.0794367
0.0794365
0.0794362
0.079436
0.0794358
0.0794356
0.0794354
0.0794353
0.0794351
0.079435
0.0794348
0.0811835
0.0811373
0.0808619
0.0805883
0.080379
0.0802287
0.080119
0.0800355
0.0799692
0.0799146
0.0798686
0.0798292
0.0797952
0.0797653
0.0797389
0.0797154
0.0796944
0.0796756
0.0796585
0.079643
0.079629
0.0796161
0.0796043
0.0795935
0.0795835
0.0795743
0.0795659
0.079558
0.0795507
0.0795439
0.0795376
0.0795318
0.0795263
0.0795212
0.0795165
0.079512
0.0795079
0.079504
0.0795003
0.0794969
0.0794937
0.0794907
0.0794879
0.0794852
0.0794827
0.0794803
0.0794781
0.079476
0.079474
0.0794721
0.0794703
0.0794686
0.079467
0.0794654
0.079464
0.0794626
0.0794612
0.07946
0.0794588
0.0794576
0.0794565
0.0794554
0.0794544
0.0794534
0.0794525
0.0794516
0.0794507
0.0794499
0.0794491
0.0794483
0.0794476
0.0794469
0.0794462
0.0794456
0.079445
0.0794444
0.0794438
0.0794432
0.0794427
0.0794422
0.0794417
0.0794412
0.0794408
0.0794404
0.07944
0.0794396
0.0794392
0.0794388
0.0794385
0.0794381
0.0794378
0.0794375
0.0794372
0.079437
0.0794367
0.0794365
0.0794362
0.079436
0.0794358
0.0794356
0.0794354
0.0794353
0.0794351
0.079435
0.0794348
0.0811835
0.0811373
0.0808619
0.0805883
0.080379
0.0802287
0.0801189
0.0800354
0.0799691
0.0799145
0.0798685
0.0798292
0.0797951
0.0797652
0.0797388
0.0797153
0.0796944
0.0796755
0.0796584
0.079643
0.0796289
0.079616
0.0796042
0.0795934
0.0795834
0.0795743
0.0795658
0.0795579
0.0795506
0.0795438
0.0795375
0.0795317
0.0795262
0.0795211
0.0795164
0.079512
0.0795078
0.0795039
0.0795003
0.0794969
0.0794937
0.0794906
0.0794878
0.0794852
0.0794826
0.0794803
0.0794781
0.0794759
0.0794739
0.0794721
0.0794703
0.0794686
0.079467
0.0794654
0.079464
0.0794626
0.0794612
0.07946
0.0794588
0.0794576
0.0794565
0.0794554
0.0794544
0.0794534
0.0794525
0.0794516
0.0794507
0.0794499
0.0794491
0.0794484
0.0794476
0.0794469
0.0794463
0.0794456
0.079445
0.0794444
0.0794438
0.0794433
0.0794427
0.0794422
0.0794417
0.0794413
0.0794408
0.0794404
0.07944
0.0794396
0.0794392
0.0794389
0.0794385
0.0794382
0.0794379
0.0794376
0.0794373
0.079437
0.0794368
0.0794365
0.0794363
0.0794361
0.0794359
0.0794357
0.0794355
0.0794353
0.0794352
0.0794351
0.0794349
0.0811835
0.0811373
0.0808618
0.0805883
0.0803789
0.0802286
0.0801189
0.0800354
0.0799691
0.0799145
0.0798685
0.0798291
0.079795
0.0797651
0.0797387
0.0797153
0.0796943
0.0796754
0.0796584
0.0796429
0.0796288
0.0796159
0.0796042
0.0795933
0.0795834
0.0795742
0.0795657
0.0795578
0.0795505
0.0795438
0.0795375
0.0795316
0.0795262
0.0795211
0.0795163
0.0795119
0.0795078
0.0795039
0.0795002
0.0794968
0.0794936
0.0794906
0.0794878
0.0794851
0.0794826
0.0794803
0.0794781
0.0794759
0.079474
0.0794721
0.0794703
0.0794686
0.079467
0.0794654
0.079464
0.0794626
0.0794613
0.07946
0.0794588
0.0794576
0.0794565
0.0794555
0.0794545
0.0794535
0.0794526
0.0794517
0.0794508
0.07945
0.0794492
0.0794484
0.0794477
0.079447
0.0794463
0.0794457
0.0794451
0.0794445
0.0794439
0.0794434
0.0794428
0.0794423
0.0794418
0.0794414
0.0794409
0.0794405
0.0794401
0.0794397
0.0794393
0.079439
0.0794386
0.0794383
0.079438
0.0794377
0.0794374
0.0794371
0.0794369
0.0794366
0.0794364
0.0794362
0.079436
0.0794358
0.0794356
0.0794354
0.0794353
0.0794352
0.079435
0.0811835
0.0811373
0.0808618
0.0805882
0.0803789
0.0802286
0.0801188
0.0800353
0.079969
0.0799144
0.0798684
0.0798291
0.079795
0.0797651
0.0797387
0.0797152
0.0796942
0.0796753
0.0796583
0.0796428
0.0796287
0.0796158
0.079604
0.0795932
0.0795833
0.0795741
0.0795656
0.0795577
0.0795505
0.0795437
0.0795374
0.0795316
0.0795261
0.079521
0.0795163
0.0795119
0.0795077
0.0795039
0.0795002
0.0794968
0.0794936
0.0794906
0.0794878
0.0794852
0.0794827
0.0794803
0.0794781
0.079476
0.079474
0.0794722
0.0794704
0.0794687
0.0794671
0.0794656
0.0794641
0.0794627
0.0794614
0.0794601
0.0794589
0.0794578
0.0794567
0.0794556
0.0794546
0.0794537
0.0794527
0.0794519
0.079451
0.0794502
0.0794494
0.0794486
0.0794479
0.0794472
0.0794466
0.0794459
0.0794453
0.0794447
0.0794441
0.0794436
0.0794431
0.0794426
0.0794421
0.0794416
0.0794412
0.0794408
0.0794403
0.07944
0.0794396
0.0794392
0.0794389
0.0794386
0.0794383
0.079438
0.0794377
0.0794374
0.0794371
0.0794369
0.0794367
0.0794365
0.0794363
0.0794361
0.0794359
0.0794357
0.0794356
0.0794354
0.0794353
0.0811835
0.0811373
0.0808618
0.0805882
0.0803789
0.0802286
0.0801188
0.0800353
0.0799689
0.0799144
0.0798683
0.079829
0.0797949
0.079765
0.0797386
0.0797151
0.0796941
0.0796752
0.0796582
0.0796427
0.0796286
0.0796158
0.079604
0.0795932
0.0795833
0.0795741
0.0795656
0.0795578
0.0795505
0.0795438
0.0795375
0.0795317
0.0795262
0.0795212
0.0795164
0.079512
0.0795079
0.0795041
0.0795005
0.0794971
0.0794939
0.0794909
0.0794881
0.0794855
0.079483
0.0794807
0.0794785
0.0794764
0.0794744
0.0794726
0.0794708
0.0794691
0.0794675
0.079466
0.0794646
0.0794632
0.0794619
0.0794607
0.0794595
0.0794583
0.0794573
0.0794562
0.0794552
0.0794543
0.0794533
0.0794525
0.0794516
0.0794508
0.07945
0.0794493
0.0794486
0.0794479
0.0794472
0.0794466
0.079446
0.0794454
0.0794448
0.0794443
0.0794438
0.0794433
0.0794428
0.0794423
0.0794419
0.0794415
0.0794411
0.0794407
0.0794403
0.07944
0.0794396
0.0794393
0.079439
0.0794387
0.0794384
0.0794382
0.0794379
0.0794377
0.0794375
0.0794372
0.079437
0.0794369
0.0794367
0.0794365
0.0794363
0.0794362
0.0794361
0.0811835
0.0811373
0.0808618
0.0805882
0.0803788
0.0802285
0.0801187
0.0800352
0.0799689
0.0799143
0.0798683
0.0798289
0.0797948
0.0797649
0.0797385
0.079715
0.079694
0.0796752
0.0796581
0.0796427
0.0796286
0.0796158
0.0796041
0.0795933
0.0795834
0.0795743
0.0795658
0.079558
0.0795508
0.0795441
0.0795379
0.0795321
0.0795268
0.0795218
0.0795171
0.0795128
0.0795087
0.0795049
0.0795014
0.079498
0.0794949
0.079492
0.0794892
0.0794867
0.0794842
0.079482
0.0794798
0.0794778
0.0794759
0.079474
0.0794723
0.0794707
0.0794691
0.0794677
0.0794663
0.0794649
0.0794637
0.0794624
0.0794613
0.0794602
0.0794591
0.0794581
0.0794571
0.0794562
0.0794553
0.0794545
0.0794536
0.0794528
0.0794521
0.0794514
0.0794507
0.07945
0.0794494
0.0794487
0.0794481
0.0794476
0.079447
0.0794465
0.079446
0.0794455
0.0794451
0.0794446
0.0794442
0.0794438
0.0794434
0.079443
0.0794427
0.0794423
0.079442
0.0794417
0.0794414
0.0794411
0.0794408
0.0794406
0.0794403
0.0794401
0.0794399
0.0794397
0.0794395
0.0794393
0.0794391
0.079439
0.0794388
0.0794387
0.0794386
0.0811835
0.0811373
0.0808618
0.0805882
0.0803789
0.0802286
0.0801188
0.0800353
0.079969
0.0799144
0.0798684
0.0798291
0.0797951
0.0797652
0.0797389
0.0797156
0.0796947
0.079676
0.0796591
0.0796438
0.0796299
0.0796172
0.0796057
0.0795951
0.0795853
0.0795764
0.0795682
0.0795606
0.0795535
0.079547
0.079541
0.0795354
0.0795302
0.0795254
0.0795209
0.0795167
0.0795129
0.0795092
0.0795058
0.0795027
0.0794997
0.0794969
0.0794943
0.0794919
0.0794896
0.0794875
0.0794854
0.0794835
0.0794817
0.07948
0.0794784
0.0794769
0.0794754
0.079474
0.0794727
0.0794715
0.0794703
0.0794692
0.0794681
0.0794671
0.0794661
0.0794652
0.0794643
0.0794634
0.0794626
0.0794618
0.079461
0.0794603
0.0794596
0.0794589
0.0794583
0.0794577
0.0794571
0.0794565
0.079456
0.0794555
0.079455
0.0794545
0.079454
0.0794536
0.0794532
0.0794528
0.0794524
0.079452
0.0794517
0.0794513
0.079451
0.0794507
0.0794504
0.0794501
0.0794499
0.0794496
0.0794494
0.0794492
0.0794489
0.0794487
0.0794486
0.0794484
0.0794482
0.079448
0.0794479
0.0794478
0.0794476
0.0794475
0.0794474
0.0811835
0.0811373