# Probe 0 (44.65 35.42 1)
# Probe 1 (44.65 35.42 3)
# Probe 2 (44.65 35.42 8)
# Probe 3 (52.13 22.51 1)
# Probe 4 (52.13 22.51 3)
# Probe 5 (52.13 22.51 8)
# Probe 6 (57 8.01 1)
# Probe 7 (57 8.01 3)
# Probe 8 (57 8.01 8)
# Probe 9 (56.58 6.95 1)
# Probe 10 (56.58 6.95 3)
# Probe 11 (56.58 6.95 8)
# Probe 12 (53.37 21.56 1)
# Probe 13 (53.37 21.56 3)
# Probe 14 (53.37 21.56 8)
# Probe 15 (45.14 34.46 1)
# Probe 16 (45.14 34.46 3)
# Probe 17 (45.14 34.46 8)
# Probe 18 (34.75 45.17 1)
# Probe 19 (34.75 45.17 3)
# Probe 20 (34.75 45.17 8)
# Probe 21 (121.4 69.72 1)
# Probe 22 (121.4 69.72 3)
# Probe 23 (121.4 69.72 8)
# Probe 24 (133.12 42.09 1)
# Probe 25 (133.12 42.09 3)
# Probe 26 (133.12 42.09 8)
# Probe 27 (139.63 13.08 1)
# Probe 28 (139.63 13.08 3)
# Probe 29 (139.63 13.08 8)
# Probe 30 (138.96 17.06 1)
# Probe 31 (138.96 17.06 3)
# Probe 32 (138.96 17.06 8)
# Probe 33 (132.32 46.47 1)
# Probe 34 (132.32 46.47 3)
# Probe 35 (132.32 46.47 8)
# Probe 36 (118.98 73.05 1)
# Probe 37 (118.98 73.05 3)
# Probe 38 (118.98 73.05 8)
# Probe 39 (100.93 97.02 1)
# Probe 40 (100.93 97.02 3)
# Probe 41 (100.93 97.02 8)
# Probe 42 (378.52 128.83 1)
# Probe 43 (378.52 128.83 3)
# Probe 44 (378.52 128.83 8)
# Probe 45 (393.53 70.57 1)
# Probe 46 (393.53 70.57 3)
# Probe 47 (393.53 70.57 8)
# Probe 48 (399.84 11.15 1)
# Probe 49 (399.84 11.15 3)
# Probe 50 (399.84 11.15 8)
# Probe 51 (397.02 48.75 1)
# Probe 52 (397.02 48.75 3)
# Probe 53 (397.02 48.75 8)
# Probe 54 (385.26 107.55 1)
# Probe 55 (385.26 107.55 3)
# Probe 56 (385.26 107.55 8)
# Probe 57 (364.77 163.67 1)
# Probe 58 (364.77 163.67 3)
# Probe 59 (364.77 163.67 8)
# Probe 60 (336.11 216.58 1)
# Probe 61 (336.11 216.58 3)
# Probe 62 (336.11 216.58 8)
# Probe 63 (797.53 62.27 1)
# Probe 64 (797.53 62.27 3)
# Probe 65 (797.53 62.27 8)
# Probe 66 (799.8 17.7 1)
# Probe 67 (799.8 17.7 3)
# Probe 68 (799.8 17.7 8)
# Probe 69 (794.04 97.5 1)
# Probe 70 (794.04 97.5 3)
# Probe 71 (794.04 97.5 8)
# Probe 72 (780.33 176.31 1)
# Probe 73 (780.33 176.31 3)
# Probe 74 (780.33 176.31 8)
# Probe 75 (758.78 253.36 1)
# Probe 76 (758.78 253.36 3)
# Probe 77 (758.78 253.36 8)
#       Probe             0             1             2             3             4             5             6             7             8             9            10            11            12            13            14            15            16            17            18            19            20            21            22            23            24            25            26            27            28            29            30            31            32            33            34            35            36            37            38            39            40            41            42            43            44            45            46            47            48            49            50            51            52            53            54            55            56            57            58            59            60            61            62            63            64            65            66            67            68            69            70            71            72            73            74            75            76            77
#        Time
            1             0             0             0    2.6334e-08   5.10661e-08   1.13143e-07   9.68955e-05   7.60779e-05   7.21481e-06    0.00011105   8.86161e-05   7.21481e-06   2.35736e-07   4.48181e-07   1.13143e-07   1.08214e-13             0             0    3.8375e-18   9.01319e-17             0   1.07092e-20   1.08263e-19             0   1.55643e-16   1.91252e-15   2.36307e-13    1.3196e-09   2.97664e-09   5.10944e-09   7.03069e-10   1.69225e-09   1.77471e-09   1.00687e-17   2.34274e-16             0   4.71013e-21   9.83443e-20   9.75112e-18   5.85461e-26             0             0   2.15852e-29   2.20151e-28   4.46998e-27   1.11588e-24   8.66185e-24   1.07398e-22   6.81148e-20   3.25027e-19   1.64939e-18   5.90693e-22   3.65485e-21    2.9983e-20   1.89082e-27    1.7707e-26   3.06613e-25   1.04169e-33   1.23719e-32   3.33582e-31   1.72707e-39   2.57911e-38   1.00683e-36   6.43555e-35    4.0328e-34   3.65098e-33   5.21548e-33   2.98074e-32   2.28733e-31   1.17495e-36   7.86601e-36   7.90144e-35   2.20641e-42   1.74113e-41   2.34882e-40   5.08687e-49    4.7355e-48   8.59939e-47
            2   6.53342e-15             0             0   2.40352e-07   4.24781e-07   7.91037e-07   0.000755415   0.000547771   5.06301e-05   0.000858629   0.000632618   5.06301e-05   2.17561e-06   3.69875e-06   7.91037e-07   1.42866e-12             0             0   6.53105e-18   2.38955e-16             0             0             0             0   3.67513e-15   4.94804e-14   3.31955e-12   1.95311e-08   3.95052e-08   5.85703e-08   1.02642e-08   2.21203e-08   2.29186e-08   1.95222e-16   4.42247e-15             0   4.88325e-20    9.0641e-19   1.10756e-16   2.12651e-24             0             0   7.21419e-28   7.10533e-27   1.39664e-25   3.63147e-23   2.77377e-22   3.42865e-21   2.02164e-18    9.1227e-18   4.25404e-17   1.88818e-20   1.13531e-19   9.21495e-19   6.20018e-26   5.64798e-25   9.43836e-24    3.4109e-32   3.93187e-31   1.11407e-29   5.55328e-38   8.04193e-37   3.05116e-35   3.94521e-33   2.43893e-32   2.16383e-31   2.91425e-31   1.64471e-30    1.2673e-29   6.95496e-35   4.57843e-34   4.50277e-33   1.36998e-40   1.06854e-39   1.42918e-38   3.09639e-47   2.83512e-46    5.0612e-45
