# Probe 0 (44.65 35.42 1)
# Probe 1 (44.65 35.42 3)
# Probe 2 (44.65 35.42 8)
# Probe 3 (52.13 22.51 1)
# Probe 4 (52.13 22.51 3)
# Probe 5 (52.13 22.51 8)
# Probe 6 (57 8.01 1)
# Probe 7 (57 8.01 3)
# Probe 8 (57 8.01 8)
# Probe 9 (56.58 6.95 1)
# Probe 10 (56.58 6.95 3)
# Probe 11 (56.58 6.95 8)
# Probe 12 (53.37 21.56 1)
# Probe 13 (53.37 21.56 3)
# Probe 14 (53.37 21.56 8)
# Probe 15 (45.14 34.46 1)
# Probe 16 (45.14 34.46 3)
# Probe 17 (45.14 34.46 8)
# Probe 18 (34.75 45.17 1)
# Probe 19 (34.75 45.17 3)
# Probe 20 (34.75 45.17 8)
# Probe 21 (121.4 69.72 1)
# Probe 22 (121.4 69.72 3)
# Probe 23 (121.4 69.72 8)
# Probe 24 (133.12 42.09 1)
# Probe 25 (133.12 42.09 3)
# Probe 26 (133.12 42.09 8)
# Probe 27 (139.63 13.08 1)
# Probe 28 (139.63 13.08 3)
# Probe 29 (139.63 13.08 8)
# Probe 30 (138.96 17.06 1)
# Probe 31 (138.96 17.06 3)
# Probe 32 (138.96 17.06 8)
# Probe 33 (132.32 46.47 1)
# Probe 34 (132.32 46.47 3)
# Probe 35 (132.32 46.47 8)
# Probe 36 (118.98 73.05 1)
# Probe 37 (118.98 73.05 3)
# Probe 38 (118.98 73.05 8)
# Probe 39 (100.93 97.02 1)
# Probe 40 (100.93 97.02 3)
# Probe 41 (100.93 97.02 8)
# Probe 42 (378.52 128.83 1)
# Probe 43 (378.52 128.83 3)
# Probe 44 (378.52 128.83 8)
# Probe 45 (393.53 70.57 1)
# Probe 46 (393.53 70.57 3)
# Probe 47 (393.53 70.57 8)
# Probe 48 (399.84 11.15 1)
# Probe 49 (399.84 11.15 3)
# Probe 50 (399.84 11.15 8)
# Probe 51 (397.02 48.75 1)
# Probe 52 (397.02 48.75 3)
# Probe 53 (397.02 48.75 8)
# Probe 54 (385.26 107.55 1)
# Probe 55 (385.26 107.55 3)
# Probe 56 (385.26 107.55 8)
# Probe 57 (364.77 163.67 1)
# Probe 58 (364.77 163.67 3)
# Probe 59 (364.77 163.67 8)
# Probe 60 (336.11 216.58 1)
# Probe 61 (336.11 216.58 3)
# Probe 62 (336.11 216.58 8)
# Probe 63 (797.53 62.27 1)
# Probe 64 (797.53 62.27 3)
# Probe 65 (797.53 62.27 8)
# Probe 66 (799.8 17.7 1)
# Probe 67 (799.8 17.7 3)
# Probe 68 (799.8 17.7 8)
# Probe 69 (794.04 97.5 1)
# Probe 70 (794.04 97.5 3)
# Probe 71 (794.04 97.5 8)
# Probe 72 (780.33 176.31 1)
# Probe 73 (780.33 176.31 3)
# Probe 74 (780.33 176.31 8)
# Probe 75 (758.78 253.36 1)
# Probe 76 (758.78 253.36 3)
# Probe 77 (758.78 253.36 8)
#       Probe             0             1             2             3             4             5             6             7             8             9            10            11            12            13            14            15            16            17            18            19            20            21            22            23            24            25            26            27            28            29            30            31            32            33            34            35            36            37            38            39            40            41            42            43            44            45            46            47            48            49            50            51            52            53            54            55            56            57            58            59            60            61            62            63            64            65            66            67            68            69            70            71            72            73            74            75            76            77
#        Time
            1       298.218       298.219       298.225       298.217       298.218       298.224       298.219       298.219       298.223       298.219        298.22       298.223       298.217       298.218       298.224       298.218       298.219       298.225       298.223       298.222       298.226       298.224       298.226       298.226        298.22       298.221       298.226       298.218       298.219       298.225       298.218       298.219       298.225       298.223       298.223       298.226       298.225       298.226       298.226        298.23        298.23       298.228       298.227       298.228       298.228       298.227       298.228       298.228       298.226       298.227       298.227       298.226       298.228       298.228       298.227       298.228       298.228       298.227       298.228       298.228       298.227       298.228       298.228       298.226       298.228       298.228       298.226       298.227       298.227       298.227       298.228       298.228       298.227       298.228       298.228       298.226       298.228       298.228
            2       298.216       298.219       298.225       298.215       298.217       298.223       298.234       298.234       298.223       298.237       298.237       298.223       298.214       298.217       298.223       298.216       298.219       298.224       298.221       298.222       298.226       298.222       298.225       298.226       298.219       298.221       298.226       298.216       298.219       298.225       298.216       298.219       298.225       298.221       298.223       298.226       298.223       298.226       298.226       298.228       298.229       298.228       298.224       298.228       298.228       298.224       298.228       298.228       298.223       298.227       298.227       298.224       298.228       298.228       298.224       298.228       298.228       298.224       298.228       298.228       298.224       298.228       298.228       298.224       298.228       298.228       298.223       298.227       298.227       298.224       298.228       298.228       298.224       298.228       298.228       298.224       298.228       298.228
