# Probe 0 (0.316 0 0)
# Probe 1 (0.613 0 0)
# Probe 2 (0.92 0 0)
# Probe 3 (1.23 0 0)
# Probe 4 (1.53 0 0)
# Probe 5 (1.84 0 0)
# Probe 6 (2.15 0 0)
# Probe 7 (2.38 0 0)
#       Probe             0             1             2             3             4             5             6             7
#        Time
            1     0.0991884     0.0179942    0.00270119   0.000262692   2.83127e-05   2.32094e-06   2.35976e-07   3.80889e-08
            2      0.106793     0.0421722     0.0204981    0.00802302    0.00279682   0.000713146     0.0001786   5.49679e-05
            3      0.107569     0.0445912     0.0255036     0.0150429     0.0092091    0.00491659     0.0024586    0.00128603
            4      0.107663     0.0448411     0.0260869      0.016309     0.0113047     0.0077296    0.00538825    0.00390722
            5      0.107686     0.0448832     0.0261548     0.0164603     0.0116104    0.00833075    0.00633806    0.00513045
            6      0.107696     0.0448957     0.0261726     0.0164877     0.0116537    0.00841331    0.00649449    0.00538087
            7      0.107692     0.0448995     0.0261789     0.0164963     0.0116651    0.00842929    0.00651912    0.00541833
            8      0.107694      0.044897     0.0261795     0.0164995     0.0116693    0.00843461    0.00652586    0.00542674
            9      0.107701     0.0448963     0.0261794        0.0165     0.0116707    0.00843669     0.0065284    0.00542971
           10      0.107699     0.0448964     0.0261798     0.0165003     0.0116712    0.00843741    0.00652935    0.00543083
           11      0.107712     0.0448985     0.0261797     0.0165003     0.0116714    0.00843767    0.00652968    0.00543121
           12      0.107722     0.0449027     0.0261818     0.0165011     0.0116717    0.00843779    0.00652976     0.0054313
           13      0.107726     0.0449055     0.0261832      0.016502     0.0116722    0.00843811    0.00652992    0.00543136
           14      0.107734      0.044908     0.0261843     0.0165025     0.0116725    0.00843829    0.00653004    0.00543144
           15      0.107743     0.0449114     0.0261857      0.016503     0.0116727    0.00843835    0.00653003    0.00543141
           16      0.107745     0.0449137      0.026187     0.0165037      0.011673     0.0084384       0.00653    0.00543133
           17      0.107748     0.0449149     0.0261877     0.0165041     0.0116733    0.00843854    0.00653002    0.00543129
           18       0.10775     0.0449155     0.0261881     0.0165044     0.0116734    0.00843861    0.00653005    0.00543128
           19      0.107749     0.0449159     0.0261883     0.0165044     0.0116734    0.00843861    0.00653003    0.00543125
           20       0.10775     0.0449162     0.0261884     0.0165045     0.0116734    0.00843858    0.00652998    0.00543119
           21      0.107752     0.0449164     0.0261885     0.0165045     0.0116734    0.00843854    0.00652993    0.00543113
           22       0.10775     0.0449165     0.0261885     0.0165045     0.0116734    0.00843851    0.00652988    0.00543107
           23      0.107751     0.0449166     0.0261886     0.0165045     0.0116734    0.00843847    0.00652983    0.00543102
           24      0.107752     0.0449165     0.0261886     0.0165045     0.0116734    0.00843844    0.00652979    0.00543097
           25      0.107751     0.0449166     0.0261886     0.0165045     0.0116733    0.00843841    0.00652976    0.00543093
           26      0.107751     0.0449166     0.0261885     0.0165045     0.0116733    0.00843838    0.00652972     0.0054309
           27      0.107752     0.0449165     0.0261885     0.0165044     0.0116733    0.00843835    0.00652969    0.00543086
           28      0.107751     0.0449165     0.0261885     0.0165044     0.0116733    0.00843833    0.00652967    0.00543084
           29      0.107751     0.0449165     0.0261885     0.0165044     0.0116733    0.00843831    0.00652964    0.00543081
           30      0.107752     0.0449164     0.0261885     0.0165044     0.0116732    0.00843829    0.00652962    0.00543079
           31       0.10775     0.0449164     0.0261885     0.0165044     0.0116732    0.00843827    0.00652961    0.00543077
           32       0.10775     0.0449164     0.0261884     0.0165044     0.0116732    0.00843826    0.00652959    0.00543075
           33      0.107752     0.0449163     0.0261884     0.0165043     0.0116732    0.00843825    0.00652958    0.00543074
           34       0.10775     0.0449163     0.0261884     0.0165043     0.0116732    0.00843823    0.00652957    0.00543073
           35       0.10775     0.0449163     0.0261884     0.0165043     0.0116732    0.00843822    0.00652955    0.00543072
           36      0.107752     0.0449162     0.0261883     0.0165043     0.0116732    0.00843821    0.00652954    0.00543071
           37       0.10775     0.0449162     0.0261883     0.0165043     0.0116732     0.0084382    0.00652954     0.0054307
           38       0.10775     0.0449162     0.0261883     0.0165043     0.0116731    0.00843819    0.00652953    0.00543069
           39      0.107751     0.0449161     0.0261883     0.0165043     0.0116731    0.00843819    0.00652952    0.00543068
           40       0.10775     0.0449161     0.0261883     0.0165043     0.0116731    0.00843818    0.00652952    0.00543068
           41      0.107749     0.0449161     0.0261883     0.0165043     0.0116731    0.00843818    0.00652951    0.00543067
           42      0.107751     0.0449159     0.0261882     0.0165042     0.0116731    0.00843818    0.00652951    0.00543067
           43      0.107749     0.0449159     0.0261882     0.0165042     0.0116731    0.00843817     0.0065295    0.00543067
           44      0.107749     0.0449159     0.0261882     0.0165042     0.0116731    0.00843816     0.0065295    0.00543066
           45      0.107751     0.0449159     0.0261882     0.0165042     0.0116731    0.00843815    0.00652949    0.00543065
           46      0.107749     0.0449159     0.0261882     0.0165042     0.0116731    0.00843815    0.00652949    0.00543065
           47      0.107749     0.0449159     0.0261882     0.0165042     0.0116731    0.00843815    0.00652948    0.00543065
           48      0.107751     0.0449159     0.0261882     0.0165042     0.0116731    0.00843815    0.00652948    0.00543065
           49      0.107749     0.0449159     0.0261882     0.0165042     0.0116731    0.00843815    0.00652948    0.00543064
           50      0.107749     0.0449159     0.0261882     0.0165042     0.0116731    0.00843814    0.00652948    0.00543064
           51      0.107751     0.0449159     0.0261882     0.0165042     0.0116731    0.00843814    0.00652948    0.00543064
           52      0.107749     0.0449159     0.0261882     0.0165042     0.0116731    0.00843814    0.00652948    0.00543064
           53      0.107749     0.0449159     0.0261882     0.0165042     0.0116731    0.00843814    0.00652948    0.00543064
           54      0.107751     0.0449159     0.0261882     0.0165042     0.0116731    0.00843814    0.00652948    0.00543064
           55      0.107749     0.0449159     0.0261882     0.0165042     0.0116731    0.00843814    0.00652948    0.00543064
           56      0.107749     0.0449159     0.0261882     0.0165042     0.0116731    0.00843814    0.00652948    0.00543064
           57      0.107751     0.0449159     0.0261882     0.0165042     0.0116731    0.00843814    0.00652948    0.00543064
           58      0.107749     0.0449159     0.0261882     0.0165042     0.0116731    0.00843814    0.00652947    0.00543064
           59      0.107749     0.0449159     0.0261882     0.0165042     0.0116731    0.00843814    0.00652947    0.00543064
           60      0.107751     0.0449159     0.0261882     0.0165042     0.0116731    0.00843814    0.00652947    0.00543064
           61      0.107749     0.0449159     0.0261882     0.0165042     0.0116731    0.00843814    0.00652947    0.00543064
           62      0.107749     0.0449159     0.0261882     0.0165042     0.0116731    0.00843814    0.00652947    0.00543064
           63      0.107751     0.0449158     0.0261882     0.0165042     0.0116731    0.00843814    0.00652947    0.00543064
           64      0.107749     0.0449159     0.0261882     0.0165042     0.0116731    0.00843814    0.00652947    0.00543064
           65      0.107749     0.0449159     0.0261882     0.0165042     0.0116731    0.00843814    0.00652947    0.00543064
           66      0.107751     0.0449159     0.0261882     0.0165042     0.0116731    0.00843814    0.00652947    0.00543063
           67      0.107749     0.0449159     0.0261882     0.0165042     0.0116731    0.00843814    0.00652947    0.00543063
           68      0.107749     0.0449159     0.0261882     0.0165042     0.0116731    0.00843814    0.00652947    0.00543063
           69      0.107751     0.0449158     0.0261882     0.0165042     0.0116731    0.00843814    0.00652947    0.00543063
           70      0.107749     0.0449159     0.0261882     0.0165042     0.0116731    0.00843814    0.00652947    0.00543063
           71      0.107749     0.0449159     0.0261882     0.0165042     0.0116731    0.00843814    0.00652947    0.00543063
           72      0.107751     0.0449158     0.0261882     0.0165042     0.0116731    0.00843814    0.00652947    0.00543063
           73      0.107749     0.0449159     0.0261882     0.0165042     0.0116731    0.00843814    0.00652947    0.00543063
           74      0.107749     0.0449159     0.0261882     0.0165042     0.0116731    0.00843814    0.00652947    0.00543063
           75      0.107751     0.0449158     0.0261882     0.0165042     0.0116731    0.00843814    0.00652947    0.00543063
           76      0.107749     0.0449159     0.0261882     0.0165042     0.0116731    0.00843814    0.00652947    0.00543063
           77      0.107749     0.0449159     0.0261882     0.0165042     0.0116731    0.00843814    0.00652947    0.00543063
           78      0.107751     0.0449158     0.0261882     0.0165042     0.0116731    0.00843814    0.00652947    0.00543063
           79      0.107749     0.0449159     0.0261882     0.0165042     0.0116731    0.00843814    0.00652947    0.00543063
           80      0.107749     0.0449159     0.0261882     0.0165042     0.0116731    0.00843814    0.00652947    0.00543063
           81      0.107751     0.0449158     0.0261882     0.0165042     0.0116731    0.00843814    0.00652947    0.00543063
           82      0.107749     0.0449159     0.0261882     0.0165042     0.0116731    0.00843814    0.00652947    0.00543063
           83      0.107749     0.0449159     0.0261882     0.0165042     0.0116731    0.00843814    0.00652947    0.00543063
           84      0.107751     0.0449158     0.0261882     0.0165042     0.0116731    0.00843814    0.00652947    0.00543063
           85      0.107749     0.0449159     0.0261882     0.0165042     0.0116731    0.00843814    0.00652947    0.00543063
           86      0.107749     0.0449159     0.0261882     0.0165042     0.0116731    0.00843814    0.00652947    0.00543063
           87      0.107751     0.0449158     0.0261882     0.0165042     0.0116731    0.00843814    0.00652947    0.00543063
           88      0.107749     0.0449159     0.0261882     0.0165042     0.0116731    0.00843814    0.00652947    0.00543063
           89      0.107749     0.0449159     0.0261882     0.0165042     0.0116731    0.00843814    0.00652947    0.00543063
           90      0.107751     0.0449158     0.0261882     0.0165042     0.0116731    0.00843814    0.00652947    0.00543063
           91      0.107749     0.0449159     0.0261882     0.0165042     0.0116731    0.00843814    0.00652947    0.00543063
           92      0.107749     0.0449159     0.0261882     0.0165042     0.0116731    0.00843814    0.00652947    0.00543063
           93      0.107751     0.0449158     0.0261882     0.0165042     0.0116731    0.00843814    0.00652947    0.00543063
           94      0.107749     0.0449159     0.0261882     0.0165042     0.0116731    0.00843814    0.00652947    0.00543063
           95      0.107749     0.0449159     0.0261882     0.0165042     0.0116731    0.00843814    0.00652947    0.00543063
           96      0.107751     0.0449158     0.0261882     0.0165042     0.0116731    0.00843814    0.00652947    0.00543063
           97      0.107749     0.0449159     0.0261882     0.0165042     0.0116731    0.00843814    0.00652947    0.00543063
           98      0.107749     0.0449159     0.0261882     0.0165042     0.0116731    0.00843814    0.00652947    0.00543063
           99      0.107751     0.0449158     0.0261882     0.0165042     0.0116731    0.00843814    0.00652947    0.00543063
          100      0.107749     0.0449159     0.0261882     0.0165042     0.0116731    0.00843814    0.00652947    0.00543063
          101      0.107749     0.0449159     0.0261882     0.0165042     0.0116731    0.00843814    0.00652947    0.00543063
          102      0.107751     0.0449158     0.0261882     0.0165042     0.0116731    0.00843814    0.00652947    0.00543063
          103      0.107749     0.0449159     0.0261882     0.0165042     0.0116731    0.00843814    0.00652947    0.00543063
          104      0.107749     0.0449159     0.0261882     0.0165042     0.0116731    0.00843814    0.00652947    0.00543063
          105      0.107751     0.0449158     0.0261882     0.0165042     0.0116731    0.00843814    0.00652947    0.00543063
          106      0.107749     0.0449159     0.0261882     0.0165042     0.0116731    0.00843814    0.00652947    0.00543063
          107      0.107749     0.0449159     0.0261882     0.0165042     0.0116731    0.00843814    0.00652947    0.00543063
          108      0.107751     0.0449158     0.0261882     0.0165042     0.0116731    0.00843814    0.00652947    0.00543063
          109      0.107749     0.0449159     0.0261882     0.0165042     0.0116731    0.00843814    0.00652947    0.00543063
          110      0.107749     0.0449159     0.0261882     0.0165042     0.0116731    0.00843814    0.00652947    0.00543063
          111      0.107751     0.0449158     0.0261882     0.0165042     0.0116731    0.00843814    0.00652947    0.00543063
          112      0.107749     0.0449159     0.0261882     0.0165042     0.0116731    0.00843814    0.00652947    0.00543063
          113      0.107749     0.0449159     0.0261882     0.0165042     0.0116731    0.00843814    0.00652947    0.00543063
          114      0.107751     0.0449158     0.0261882     0.0165042     0.0116731    0.00843814    0.00652947    0.00543063
          115      0.107749     0.0449159     0.0261882     0.0165042     0.0116731    0.00843814    0.00652947    0.00543063
          116      0.107749     0.0449159     0.0261882     0.0165042     0.0116731    0.00843814    0.00652947    0.00543063
          117      0.107751     0.0449158     0.0261882     0.0165042     0.0116731    0.00843814    0.00652947    0.00543063
          118      0.107749     0.0449159     0.0261882     0.0165042     0.0116731    0.00843814    0.00652947    0.00543063
          119      0.107749     0.0449159     0.0261882     0.0165042     0.0116731    0.00843814    0.00652947    0.00543063
          120      0.107751     0.0449158     0.0261882     0.0165042     0.0116731    0.00843814    0.00652947    0.00543063
          121      0.107749     0.0449159     0.0261882     0.0165042     0.0116731    0.00843814    0.00652947    0.00543063
          122      0.107749     0.0449159     0.0261882     0.0165042     0.0116731    0.00843814    0.00652947    0.00543063
          123      0.107751     0.0449158     0.0261882     0.0165042     0.0116731    0.00843814    0.00652947    0.00543063
          124      0.107749     0.0449159     0.0261882     0.0165042     0.0116731    0.00843814    0.00652947    0.00543063
          125      0.107749     0.0449159     0.0261882     0.0165042     0.0116731    0.00843814    0.00652947    0.00543063
          126      0.107751     0.0449158     0.0261882     0.0165042     0.0116731    0.00843814    0.00652947    0.00543063
          127      0.107749     0.0449159     0.0261882     0.0165042     0.0116731    0.00843814    0.00652947    0.00543063
          128      0.107749     0.0449159     0.0261882     0.0165042     0.0116731    0.00843814    0.00652947    0.00543063
          129      0.107751     0.0449158     0.0261882     0.0165042     0.0116731    0.00843814    0.00652947    0.00543063
          130      0.107749     0.0449159     0.0261882     0.0165042     0.0116731    0.00843814    0.00652947    0.00543063
          131      0.107749     0.0449159     0.0261882     0.0165042     0.0116731    0.00843814    0.00652947    0.00543063
          132      0.107751     0.0449158     0.0261882     0.0165042     0.0116731    0.00843814    0.00652947    0.00543063
          133      0.107749     0.0449159     0.0261882     0.0165042     0.0116731    0.00843814    0.00652947    0.00543063
          134      0.107749     0.0449159     0.0261882     0.0165042     0.0116731    0.00843814    0.00652947    0.00543063
          135      0.107751     0.0449158     0.0261882     0.0165042     0.0116731    0.00843814    0.00652947    0.00543063
          136      0.107749     0.0449159     0.0261882     0.0165042     0.0116731    0.00843814    0.00652947    0.00543063
          137      0.107749     0.0449159     0.0261882     0.0165042     0.0116731    0.00843814    0.00652947    0.00543063
          138      0.107751     0.0449158     0.0261882     0.0165042     0.0116731    0.00843814    0.00652947    0.00543063
          139      0.107749     0.0449159     0.0261882     0.0165042     0.0116731    0.00843814    0.00652947    0.00543063
          140      0.107749     0.0449159     0.0261882     0.0165042     0.0116731    0.00843814    0.00652947    0.00543063
          141      0.107751     0.0449158     0.0261882     0.0165042     0.0116731    0.00843814    0.00652947    0.00543063
          142      0.107749     0.0449159     0.0261882     0.0165042     0.0116731    0.00843814    0.00652947    0.00543063
          143      0.107749     0.0449159     0.0261882     0.0165042     0.0116731    0.00843814    0.00652947    0.00543063
          144      0.107751     0.0449158     0.0261882     0.0165042     0.0116731    0.00843814    0.00652947    0.00543063
          145      0.107749     0.0449159     0.0261882     0.0165042     0.0116731    0.00843814    0.00652947    0.00543063
          146      0.107749     0.0449159     0.0261882     0.0165042     0.0116731    0.00843814    0.00652947    0.00543063
          147      0.107751     0.0449158     0.0261882     0.0165042     0.0116731    0.00843814    0.00652947    0.00543063
          148      0.107749     0.0449159     0.0261882     0.0165042     0.0116731    0.00843814    0.00652947    0.00543063
          149      0.107749     0.0449159     0.0261882     0.0165042     0.0116731    0.00843814    0.00652947    0.00543063
          150      0.107751     0.0449158     0.0261882     0.0165042     0.0116731    0.00843814    0.00652947    0.00543063
          151      0.107749     0.0449159     0.0261882     0.0165042     0.0116731    0.00843814    0.00652947    0.00543063
          152      0.107749     0.0449159     0.0261882     0.0165042     0.0116731    0.00843814    0.00652947    0.00543063
          153      0.107751     0.0449158     0.0261882     0.0165042     0.0116731    0.00843814    0.00652947    0.00543063
          154      0.107749     0.0449159     0.0261882     0.0165042     0.0116731    0.00843814    0.00652947    0.00543063
          155      0.107749     0.0449159     0.0261882     0.0165042     0.0116731    0.00843814    0.00652947    0.00543063
          156      0.107751     0.0449158     0.0261882     0.0165042     0.0116731    0.00843814    0.00652947    0.00543063
          157      0.107749     0.0449159     0.0261882     0.0165042     0.0116731    0.00843814    0.00652947    0.00543063
          158      0.107749     0.0449159     0.0261882     0.0165042     0.0116731    0.00843814    0.00652947    0.00543063
          159      0.107751     0.0449158     0.0261882     0.0165042     0.0116731    0.00843814    0.00652947    0.00543063
          160      0.107749     0.0449159     0.0261882     0.0165042     0.0116731    0.00843814    0.00652947    0.00543063
          161      0.107749     0.0449159     0.0261882     0.0165042     0.0116731    0.00843814    0.00652947    0.00543063
          162      0.107751     0.0449158     0.0261882     0.0165042     0.0116731    0.00843814    0.00652947    0.00543063
          163      0.107749     0.0449159     0.0261882     0.0165042     0.0116731    0.00843814    0.00652947    0.00543063
          164      0.107749     0.0449159     0.0261882     0.0165042     0.0116731    0.00843814    0.00652947    0.00543063
          165      0.107751     0.0449158     0.0261882     0.0165042     0.0116731    0.00843814    0.00652947    0.00543063
          166      0.107749     0.0449159     0.0261882     0.0165042     0.0116731    0.00843814    0.00652947    0.00543063
          167      0.107749     0.0449159     0.0261882     0.0165042     0.0116731    0.00843814    0.00652947    0.00543063
          168      0.107751     0.0449158     0.0261882     0.0165042     0.0116731    0.00843814    0.00652947    0.00543063
          169      0.107749     0.0449159     0.0261882     0.0165042     0.0116731    0.00843814    0.00652947    0.00543063
          170      0.107749     0.0449159     0.0261882     0.0165042     0.0116731    0.00843814    0.00652947    0.00543063
          171      0.107751     0.0449158     0.0261882     0.0165042     0.0116731    0.00843814    0.00652947    0.00543063
          172      0.107749     0.0449159     0.0261882     0.0165042     0.0116731    0.00843814    0.00652947    0.00543063
          173      0.107749     0.0449159     0.0261882     0.0165042     0.0116731    0.00843814    0.00652947    0.00543063
          174      0.107751     0.0449158     0.0261882     0.0165042     0.0116731    0.00843814    0.00652947    0.00543063
          175      0.107749     0.0449159     0.0261882     0.0165042     0.0116731    0.00843814    0.00652947    0.00543063
          176      0.107749     0.0449159     0.0261882     0.0165042     0.0116731    0.00843814    0.00652947    0.00543063
          177      0.107751     0.0449158     0.0261882     0.0165042     0.0116731    0.00843814    0.00652947    0.00543063
          178      0.107749     0.0449159     0.0261882     0.0165042     0.0116731    0.00843814    0.00652947    0.00543063
          179      0.107749     0.0449159     0.0261882     0.0165042     0.0116731    0.00843814    0.00652947    0.00543063
          180      0.107751     0.0449158     0.0261882     0.0165042     0.0116731    0.00843814    0.00652947    0.00543063
          181      0.107749     0.0449159     0.0261882     0.0165042     0.0116731    0.00843814    0.00652947    0.00543063
          182      0.107749     0.0449159     0.0261882     0.0165042     0.0116731    0.00843814    0.00652947    0.00543063
          183      0.107751     0.0449158     0.0261882     0.0165042     0.0116731    0.00843814    0.00652947    0.00543063
          184      0.107749     0.0449159     0.0261882     0.0165042     0.0116731    0.00843814    0.00652947    0.00543063
          185      0.107749     0.0449159     0.0261882     0.0165042     0.0116731    0.00843814    0.00652947    0.00543063
          186      0.107751     0.0449158     0.0261882     0.0165042     0.0116731    0.00843814    0.00652947    0.00543063
          187      0.107749     0.0449159     0.0261882     0.0165042     0.0116731    0.00843814    0.00652947    0.00543063
          188      0.107749     0.0449159     0.0261882     0.0165042     0.0116731    0.00843814    0.00652947    0.00543063
          189      0.107751     0.0449158     0.0261882     0.0165042     0.0116731    0.00843814    0.00652947    0.00543063
          190      0.107749     0.0449159     0.0261882     0.0165042     0.0116731    0.00843814    0.00652947    0.00543063
          191      0.107749     0.0449159     0.0261882     0.0165042     0.0116731    0.00843814    0.00652947    0.00543063
          192      0.107751     0.0449158     0.0261882     0.0165042     0.0116731    0.00843814    0.00652947    0.00543063
          193      0.107749     0.0449159     0.0261882     0.0165042     0.0116731    0.00843814    0.00652947    0.00543063
          194      0.107749     0.0449159     0.0261882     0.0165042     0.0116731    0.00843814    0.00652947    0.00543063
          195      0.107751     0.0449158     0.0261882     0.0165042     0.0116731    0.00843814    0.00652947    0.00543063
          196      0.107749     0.0449159     0.0261882     0.0165042     0.0116731    0.00843814    0.00652947    0.00543063
          197      0.107749     0.0449159     0.0261882     0.0165042     0.0116731    0.00843814    0.00652947    0.00543063
          198      0.107751     0.0449158     0.0261882     0.0165042     0.0116731    0.00843814    0.00652947    0.00543063
          199      0.107749     0.0449159     0.0261882     0.0165042     0.0116731    0.00843814    0.00652947    0.00543063
          200      0.107749     0.0449159     0.0261882     0.0165042     0.0116731    0.00843814    0.00652947    0.00543063
          201      0.107751     0.0449158     0.0261882     0.0165042     0.0116731    0.00843814    0.00652947    0.00543063
          202      0.107749     0.0449159     0.0261882     0.0165042     0.0116731    0.00843814    0.00652947    0.00543063
          203      0.107749     0.0449159     0.0261882     0.0165042     0.0116731    0.00843814    0.00652947    0.00543063
          204      0.107751     0.0449158     0.0261882     0.0165042     0.0116731    0.00843814    0.00652947    0.00543063
          205      0.107749     0.0449159     0.0261882     0.0165042     0.0116731    0.00843814    0.00652947    0.00543063
          206      0.107749     0.0449159     0.0261882     0.0165042     0.0116731    0.00843814    0.00652947    0.00543063
          207      0.107751     0.0449158     0.0261882     0.0165042     0.0116731    0.00843814    0.00652947    0.00543063
          208      0.107749     0.0449159     0.0261882     0.0165042     0.0116731    0.00843814    0.00652947    0.00543063
          209      0.107749     0.0449159     0.0261882     0.0165042     0.0116731    0.00843814    0.00652947    0.00543063
          210      0.107751     0.0449158     0.0261882     0.0165042     0.0116731    0.00843814    0.00652947    0.00543063
          211      0.107749     0.0449159     0.0261882     0.0165042     0.0116731    0.00843814    0.00652947    0.00543063
          212      0.107749     0.0449159     0.0261882     0.0165042     0.0116731    0.00843814    0.00652947    0.00543063
          213      0.107751     0.0449158     0.0261882     0.0165042     0.0116731    0.00843814    0.00652947    0.00543063
          214      0.107749     0.0449159     0.0261882     0.0165042     0.0116731    0.00843814    0.00652947    0.00543063
          215      0.107749     0.0449159     0.0261882     0.0165042     0.0116731    0.00843814    0.00652947    0.00543063
          216      0.107751     0.0449158     0.0261882     0.0165042     0.0116731    0.00843814    0.00652947    0.00543063
          217      0.107749     0.0449159     0.0261882     0.0165042     0.0116731    0.00843814    0.00652947    0.00543063
          218      0.107749     0.0449159     0.0261882     0.0165042     0.0116731    0.00843814    0.00652947    0.00543063
          219      0.107751     0.0449158     0.0261882     0.0165042     0.0116731    0.00843814    0.00652947    0.00543063
          220      0.107749     0.0449159     0.0261882     0.0165042     0.0116731    0.00843814    0.00652947    0.00543063
          221      0.107749     0.0449159     0.0261882     0.0165042     0.0116731    0.00843814    0.00652947    0.00543063
          222      0.107751     0.0449158     0.0261882     0.0165042     0.0116731    0.00843814    0.00652947    0.00543063
          223      0.107749     0.0449159     0.0261882     0.0165042     0.0116731    0.00843814    0.00652947    0.00543063
          224      0.107749     0.0449159     0.0261882     0.0165042     0.0116731    0.00843814    0.00652947    0.00543063
          225      0.107751     0.0449158     0.0261882     0.0165042     0.0116731    0.00843814    0.00652947    0.00543063
